30
Energy = -85.99511102 eV
Cu 13.443086295906683 9.518345515091971 12.991137100692695
Cu 13.443086298438123 13.99197487800187 17.04882041608981
Cu 10.06485800557525 14.568057762101313 12.085453769330147
Cu 16.821314591662443 14.568057758846795 12.085453769330147
Cu 13.443086297353222 11.559110630977116 16.592012004783797
Cu 10.999076413483989 16.44147656740693 13.448884847927202
Cu 15.887096185561873 16.44147656487568 13.448884847927202
Cu 11.414952194945196 10.543635112079803 12.21595926029026
Cu 15.47122039831471 10.54363511027182 12.21595926029026
Cu 13.443086296991586 11.326076586474851 10.466748011997531
Cu 16.88140683782798 14.527673845191906 14.585538078003298
Cu 10.004765759409903 14.52767384880825 14.585538078364932
Cu 12.190000511509522 15.98624636413531 11.315739595957675
Cu 14.69617208717509 15.986246363050405 11.315739595957675
Cu 11.294772239286983 12.86392870866832 15.881741258067025
Cu 15.591400356142726 12.863928706859957 15.881741258067025
Cu 11.403941015990318 12.72486133718851 11.218598591958331
Cu 15.482231579439393 12.724861335018893 11.218598591958331
Cu 16.37395769301943 12.433528376845304 13.505275413635346
Cu 10.512214902048644 12.433528379376744 13.505275413635346
Cu 12.149773434667337 10.922806831795791 14.571606204731813
Cu 14.736399158954203 10.922806830710885 14.571606204731813
Cu 13.443086298438123 13.929655176108271 10.82361132415849
Cu 12.199282405927244 15.314398274139476 15.341570379454394
Cu 14.68689019239535 15.314398273054572 15.341570379454394
Cu 13.443086299523026 16.548724001847454 13.4181205801754
Cu 13.443086298076489 13.138773800466195 14.82551769355479
Cu 12.196412928418724 14.299037694821278 13.059205992841784
Cu 14.68975966845752 14.299037693736183 13.059205992841784
Cu 13.443086297353222 12.028626614342535 12.667475026085524
