  30  30   1   0
  0.6478369E+03  0.2688617E-08  0.2688617E-08  0.2688617E-08  0.5000000E-15
  1.000000000000000E-004
  CAR 
 unknown system                          
      1.85770999    -12.42036367  301     -4.16287774      1.00000000
    -12.420  0.0000E+00  0.0000E+00  0.0000E+00  0.0000E+00
    -12.373  0.0000E+00  0.0000E+00  0.0000E+00  0.0000E+00
    -12.325  0.0000E+00  0.0000E+00  0.0000E+00  0.0000E+00
    -12.278  0.0000E+00  0.0000E+00  0.0000E+00  0.0000E+00
    -12.230  0.0000E+00  0.0000E+00  0.0000E+00  0.0000E+00
    -12.182  0.0000E+00  0.0000E+00  0.0000E+00  0.0000E+00
    -12.135  0.0000E+00  0.0000E+00  0.0000E+00  0.0000E+00
    -12.087  0.0000E+00  0.0000E+00  0.0000E+00  0.0000E+00
    -12.040  0.0000E+00  0.0000E+00  0.0000E+00  0.0000E+00
    -11.992  0.0000E+00  0.0000E+00  0.0000E+00  0.0000E+00
    -11.944  0.0000E+00  0.0000E+00  0.0000E+00  0.0000E+00
    -11.897  0.0000E+00  0.0000E+00  0.0000E+00  0.0000E+00
    -11.849  0.0000E+00  0.0000E+00  0.0000E+00  0.0000E+00
    -11.802  0.0000E+00  0.0000E+00  0.0000E+00  0.0000E+00
    -11.754  0.0000E+00  0.0000E+00  0.1000E-02  0.1000E-02
    -11.706  0.0000E+00  0.0000E+00  0.1000E-02  0.1000E-02
    -11.659  0.0000E+00  0.0000E+00  0.1000E-02  0.1000E-02
    -11.611  0.0000E+00  0.0000E+00  0.1000E-02  0.1000E-02
    -11.564  0.0000E+00  0.0000E+00  0.1000E-02  0.1000E-02
    -11.516  0.0000E+00  0.0000E+00  0.1000E-02  0.1000E-02
    -11.468  0.0000E+00  0.0000E+00  0.1000E-02  0.1000E-02
    -11.421  0.0000E+00  0.0000E+00  0.1000E-02  0.1000E-02
    -11.373  0.0000E+00  0.0000E+00  0.1000E-02  0.1000E-02
    -11.326  0.0000E+00  0.0000E+00  0.1000E-02  0.1000E-02
    -11.278  0.0000E+00  0.0000E+00  0.1000E-02  0.1000E-02
    -11.231  0.0000E+00  0.0000E+00  0.1000E-02  0.1000E-02
    -11.183  0.0000E+00  0.0000E+00  0.1000E-02  0.1000E-02
    -11.135  0.0000E+00  0.0000E+00  0.1000E-02  0.1000E-02
    -11.088  0.0000E+00  0.0000E+00  0.1000E-02  0.1000E-02
    -11.040  0.0000E+00  0.0000E+00  0.1000E-02  0.1000E-02
    -10.993  0.0000E+00  0.0000E+00  0.1000E-02  0.1000E-02
    -10.945  0.0000E+00  0.0000E+00  0.1000E-02  0.1000E-02
    -10.897  0.0000E+00  0.0000E+00  0.1000E-02  0.1000E-02
    -10.850  0.0000E+00  0.0000E+00  0.1000E-02  0.1000E-02
    -10.802  0.0000E+00  0.0000E+00  0.1000E-02  0.1000E-02
    -10.755  0.0000E+00  0.0000E+00  0.1000E-02  0.1000E-02
    -10.707  0.0000E+00  0.0000E+00  0.1000E-02  0.1000E-02
    -10.659  0.0000E+00  0.0000E+00  0.1000E-02  0.1000E-02
    -10.612  0.0000E+00  0.0000E+00  0.1000E-02  0.1000E-02
    -10.564  0.0000E+00  0.0000E+00  0.1000E-02  0.1000E-02
    -10.517  0.0000E+00  0.0000E+00  0.1000E-02  0.1000E-02
    -10.469  0.0000E+00  0.0000E+00  0.1000E-02  0.1000E-02
    -10.421  0.0000E+00  0.0000E+00  0.1000E-02  0.1000E-02
    -10.374  0.0000E+00  0.0000E+00  0.1000E-02  0.1000E-02
    -10.326  0.0000E+00  0.0000E+00  0.1000E-02  0.1000E-02
    -10.279  0.0000E+00  0.0000E+00  0.2000E-02  0.2000E-02
    -10.231  0.1512E-01  0.1520E-01  0.2720E-02  0.2724E-02
    -10.183  0.0000E+00  0.0000E+00  0.3000E-02  0.3000E-02
    -10.136  0.0000E+00  0.0000E+00  0.4000E-02  0.4000E-02
    -10.088  0.0000E+00  0.0000E+00  0.4000E-02  0.4000E-02
    -10.041  0.0000E+00  0.0000E+00  0.4000E-02  0.4000E-02
     -9.993  0.0000E+00  0.0000E+00  0.4000E-02  0.4000E-02
     -9.945  0.0000E+00  0.0000E+00  0.4000E-02  0.4000E-02
     -9.898  0.0000E+00  0.0000E+00  0.4000E-02  0.4000E-02
     -9.850  0.0000E+00  0.0000E+00  0.4000E-02  0.4000E-02
     -9.803  0.0000E+00  0.0000E+00  0.4000E-02  0.4000E-02
     -9.755  0.0000E+00  0.0000E+00  0.4000E-02  0.4000E-02
     -9.708  0.0000E+00  0.0000E+00  0.4000E-02  0.4000E-02
     -9.660  0.0000E+00  0.0000E+00  0.4000E-02  0.4000E-02
     -9.612  0.0000E+00  0.0000E+00  0.4000E-02  0.4000E-02
     -9.565  0.0000E+00  0.0000E+00  0.4000E-02  0.4000E-02
     -9.517  0.0000E+00  0.0000E+00  0.4000E-02  0.4000E-02
     -9.470  0.0000E+00  0.0000E+00  0.4000E-02  0.4000E-02
     -9.422  0.0000E+00  0.0000E+00  0.4000E-02  0.4000E-02
     -9.374  0.0000E+00  0.0000E+00  0.4000E-02  0.4000E-02
     -9.327  0.0000E+00  0.0000E+00  0.4000E-02  0.4000E-02
     -9.279  0.0000E+00  0.0000E+00  0.4000E-02  0.4000E-02
     -9.232  0.0000E+00  0.0000E+00  0.4000E-02  0.4000E-02
     -9.184  0.0000E+00  0.0000E+00  0.4000E-02  0.4000E-02
     -9.136  0.0000E+00  0.0000E+00  0.4000E-02  0.4000E-02
     -9.089  0.0000E+00  0.0000E+00  0.4000E-02  0.4000E-02
     -9.041  0.0000E+00  0.0000E+00  0.4000E-02  0.4000E-02
     -8.994  0.0000E+00  0.0000E+00  0.4000E-02  0.4000E-02
     -8.946  0.0000E+00  0.0000E+00  0.4000E-02  0.4000E-02
     -8.898  0.0000E+00  0.0000E+00  0.4000E-02  0.4000E-02
     -8.851  0.0000E+00  0.0000E+00  0.6000E-02  0.6000E-02
     -8.803  0.0000E+00  0.0000E+00  0.6000E-02  0.6000E-02
     -8.756  0.0000E+00  0.0000E+00  0.7000E-02  0.7000E-02
     -8.708  0.0000E+00  0.0000E+00  0.8000E-02  0.8000E-02
     -8.660  0.0000E+00  0.0000E+00  0.8000E-02  0.8000E-02
     -8.613  0.0000E+00  0.0000E+00  0.8000E-02  0.8000E-02
     -8.565  0.0000E+00  0.0000E+00  0.9000E-02  0.9000E-02
     -8.518  0.0000E+00  0.0000E+00  0.9000E-02  0.9000E-02
     -8.470  0.0000E+00  0.0000E+00  0.1000E-01  0.1000E-01
     -8.423  0.0000E+00  0.0000E+00  0.1000E-01  0.1000E-01
     -8.375  0.0000E+00  0.0000E+00  0.1100E-01  0.1100E-01
     -8.327  0.0000E+00  0.0000E+00  0.1100E-01  0.1100E-01
     -8.280  0.0000E+00  0.0000E+00  0.1200E-01  0.1200E-01
     -8.232  0.0000E+00  0.0000E+00  0.1400E-01  0.1400E-01
     -8.185  0.0000E+00  0.0000E+00  0.1400E-01  0.1400E-01
     -8.137  0.0000E+00  0.0000E+00  0.1400E-01  0.1400E-01
     -8.089  0.2101E-01  0.2101E-01  0.1600E-01  0.1600E-01
     -8.042  0.0000E+00  0.0000E+00  0.1600E-01  0.1600E-01
     -7.994  0.0000E+00  0.0000E+00  0.1800E-01  0.1800E-01
     -7.947  0.0000E+00  0.0000E+00  0.1900E-01  0.1900E-01
     -7.899  0.0000E+00  0.0000E+00  0.2200E-01  0.2200E-01
     -7.851  0.0000E+00  0.0000E+00  0.2200E-01  0.2200E-01
     -7.804  0.0000E+00  0.0000E+00  0.2200E-01  0.2200E-01
     -7.756  0.0000E+00  0.0000E+00  0.2200E-01  0.2200E-01
     -7.709  0.0000E+00  0.0000E+00  0.2300E-01  0.2300E-01
     -7.661  0.0000E+00  0.0000E+00  0.2300E-01  0.2300E-01
     -7.613  0.0000E+00  0.0000E+00  0.2400E-01  0.2400E-01
     -7.566  0.0000E+00  0.0000E+00  0.2500E-01  0.2500E-01
     -7.518  0.0000E+00  0.0000E+00  0.2600E-01  0.2600E-01
     -7.471  0.0000E+00  0.0000E+00  0.2600E-01  0.2600E-01
     -7.423  0.0000E+00  0.0000E+00  0.2700E-01  0.2700E-01
     -7.375  0.0000E+00  0.0000E+00  0.2900E-01  0.2900E-01
     -7.328  0.0000E+00  0.0000E+00  0.3100E-01  0.3100E-01
     -7.280  0.0000E+00  0.0000E+00  0.3300E-01  0.3300E-01
     -7.233  0.0000E+00  0.0000E+00  0.3400E-01  0.3400E-01
     -7.185  0.0000E+00  0.0000E+00  0.3600E-01  0.3600E-01
     -7.137  0.0000E+00  0.0000E+00  0.3900E-01  0.3900E-01
     -7.090  0.0000E+00  0.0000E+00  0.4000E-01  0.4000E-01
     -7.042  0.0000E+00  0.0000E+00  0.4300E-01  0.4300E-01
     -6.995  0.0000E+00  0.0000E+00  0.4500E-01  0.4500E-01
     -6.947  0.1793E-01  0.1798E-01  0.4785E-01  0.4786E-01
     -6.900  0.0000E+00  0.0000E+00  0.5100E-01  0.5100E-01
     -6.852  0.0000E+00  0.0000E+00  0.5300E-01  0.5300E-01
     -6.804  0.0000E+00  0.0000E+00  0.5300E-01  0.5300E-01
     -6.757  0.0000E+00  0.0000E+00  0.5600E-01  0.5600E-01
     -6.709  0.0000E+00  0.0000E+00  0.5800E-01  0.5800E-01
     -6.662  0.0000E+00  0.0000E+00  0.6300E-01  0.6300E-01
     -6.614  0.0000E+00  0.0000E+00  0.6400E-01  0.6400E-01
     -6.566  0.0000E+00  0.0000E+00  0.6600E-01  0.6600E-01
     -6.519  0.0000E+00  0.0000E+00  0.6600E-01  0.6600E-01
     -6.471  0.0000E+00  0.0000E+00  0.6700E-01  0.6700E-01
     -6.424  0.0000E+00  0.0000E+00  0.6900E-01  0.6900E-01
     -6.376  0.0000E+00  0.0000E+00  0.7100E-01  0.7100E-01
     -6.328  0.0000E+00  0.0000E+00  0.7600E-01  0.7600E-01
     -6.281  0.0000E+00  0.0000E+00  0.7700E-01  0.7700E-01
     -6.233  0.0000E+00  0.0000E+00  0.8000E-01  0.8000E-01
     -6.186  0.0000E+00  0.0000E+00  0.8200E-01  0.8200E-01
     -6.138  0.0000E+00  0.0000E+00  0.8600E-01  0.8600E-01
     -6.090  0.0000E+00  0.0000E+00  0.8800E-01  0.8800E-01
     -6.043  0.0000E+00  0.0000E+00  0.9100E-01  0.9100E-01
     -5.995  0.0000E+00  0.0000E+00  0.9300E-01  0.9300E-01
     -5.948  0.0000E+00  0.0000E+00  0.9700E-01  0.9700E-01
     -5.900  0.0000E+00  0.0000E+00  0.1010E+00  0.1010E+00
     -5.852  0.2101E-01  0.2101E-01  0.1040E+00  0.1040E+00
     -5.805  0.0000E+00  0.0000E+00  0.1080E+00  0.1080E+00
     -5.757  0.0000E+00  0.0000E+00  0.1120E+00  0.1120E+00
     -5.710  0.1801E-07  0.1788E-07  0.1150E+00  0.1150E+00
     -5.662  0.0000E+00  0.0000E+00  0.1220E+00  0.1220E+00
     -5.614  0.0000E+00  0.0000E+00  0.1260E+00  0.1260E+00
     -5.567  0.0000E+00  0.0000E+00  0.1300E+00  0.1300E+00
     -5.519  0.0000E+00  0.0000E+00  0.1350E+00  0.1350E+00
     -5.472  0.0000E+00  0.0000E+00  0.1400E+00  0.1400E+00
     -5.424  0.0000E+00  0.0000E+00  0.1450E+00  0.1450E+00
     -5.377  0.0000E+00  0.0000E+00  0.1490E+00  0.1490E+00
     -5.329  0.0000E+00  0.0000E+00  0.1530E+00  0.1530E+00
     -5.281  0.0000E+00  0.0000E+00  0.1570E+00  0.1570E+00
     -5.234  0.0000E+00  0.0000E+00  0.1580E+00  0.1580E+00
     -5.186  0.0000E+00  0.0000E+00  0.1590E+00  0.1590E+00
     -5.139  0.0000E+00  0.0000E+00  0.1590E+00  0.1590E+00
     -5.091  0.0000E+00  0.0000E+00  0.1590E+00  0.1590E+00
     -5.043  0.0000E+00  0.0000E+00  0.1590E+00  0.1590E+00
     -4.996  0.0000E+00  0.0000E+00  0.1600E+00  0.1600E+00
     -4.948  0.0000E+00  0.0000E+00  0.1600E+00  0.1600E+00
     -4.901  0.0000E+00  0.0000E+00  0.1600E+00  0.1600E+00
     -4.853  0.0000E+00  0.0000E+00  0.1600E+00  0.1600E+00
     -4.805  0.0000E+00  0.0000E+00  0.1600E+00  0.1600E+00
     -4.758  0.0000E+00  0.0000E+00  0.1600E+00  0.1600E+00
     -4.710  0.0000E+00  0.0000E+00  0.1600E+00  0.1600E+00
     -4.663  0.0000E+00  0.0000E+00  0.1600E+00  0.1600E+00
     -4.615  0.0000E+00  0.0000E+00  0.1600E+00  0.1600E+00
     -4.567  0.0000E+00  0.0000E+00  0.1600E+00  0.1600E+00
     -4.520  0.0000E+00  0.0000E+00  0.1600E+00  0.1600E+00
     -4.472  0.0000E+00  0.0000E+00  0.1610E+00  0.1610E+00
     -4.425  0.0000E+00  0.0000E+00  0.1620E+00  0.1620E+00
     -4.377  0.0000E+00  0.0000E+00  0.1620E+00  0.1620E+00
     -4.329  0.0000E+00  0.0000E+00  0.1630E+00  0.1630E+00
     -4.282  0.0000E+00  0.0000E+00  0.1630E+00  0.1630E+00
     -4.234  0.0000E+00  0.0000E+00  0.1630E+00  0.1630E+00
     -4.187  0.0000E+00  0.0000E+00  0.1640E+00  0.1640E+00
     -4.139  0.0000E+00  0.0000E+00  0.1650E+00  0.1650E+00
     -4.091  0.0000E+00  0.0000E+00  0.1650E+00  0.1650E+00
     -4.044  0.0000E+00  0.0000E+00  0.1650E+00  0.1650E+00
     -3.996  0.0000E+00  0.0000E+00  0.1660E+00  0.1660E+00
     -3.949  0.0000E+00  0.0000E+00  0.1660E+00  0.1660E+00
     -3.901  0.0000E+00  0.0000E+00  0.1660E+00  0.1660E+00
     -3.854  0.0000E+00  0.0000E+00  0.1670E+00  0.1670E+00
     -3.806  0.0000E+00  0.0000E+00  0.1670E+00  0.1670E+00
     -3.758  0.0000E+00  0.0000E+00  0.1670E+00  0.1670E+00
     -3.711  0.0000E+00  0.0000E+00  0.1670E+00  0.1670E+00
     -3.663  0.0000E+00  0.0000E+00  0.1670E+00  0.1670E+00
     -3.616  0.0000E+00  0.0000E+00  0.1670E+00  0.1670E+00
     -3.568  0.0000E+00  0.0000E+00  0.1670E+00  0.1670E+00
     -3.520  0.0000E+00  0.0000E+00  0.1670E+00  0.1670E+00
     -3.473  0.0000E+00  0.0000E+00  0.1680E+00  0.1680E+00
     -3.425  0.0000E+00  0.0000E+00  0.1680E+00  0.1680E+00
     -3.378  0.0000E+00  0.0000E+00  0.1680E+00  0.1680E+00
     -3.330  0.0000E+00  0.0000E+00  0.1700E+00  0.1700E+00
     -3.282  0.0000E+00  0.0000E+00  0.1700E+00  0.1700E+00
     -3.235  0.0000E+00  0.0000E+00  0.1700E+00  0.1700E+00
     -3.187  0.0000E+00  0.0000E+00  0.1700E+00  0.1700E+00
     -3.140  0.0000E+00  0.0000E+00  0.1700E+00  0.1700E+00
     -3.092  0.0000E+00  0.0000E+00  0.1700E+00  0.1700E+00
     -3.044  0.0000E+00  0.0000E+00  0.1700E+00  0.1700E+00
     -2.997  0.0000E+00  0.0000E+00  0.1700E+00  0.1700E+00
     -2.949  0.0000E+00  0.0000E+00  0.1700E+00  0.1700E+00
     -2.902  0.0000E+00  0.0000E+00  0.1700E+00  0.1700E+00
     -2.854  0.0000E+00  0.0000E+00  0.1700E+00  0.1700E+00
     -2.806  0.0000E+00  0.0000E+00  0.1700E+00  0.1700E+00
     -2.759  0.0000E+00  0.0000E+00  0.1700E+00  0.1700E+00
     -2.711  0.0000E+00  0.0000E+00  0.1700E+00  0.1700E+00
     -2.664  0.0000E+00  0.0000E+00  0.1700E+00  0.1700E+00
     -2.616  0.0000E+00  0.0000E+00  0.1700E+00  0.1700E+00
     -2.568  0.0000E+00  0.0000E+00  0.1720E+00  0.1720E+00
     -2.521  0.0000E+00  0.0000E+00  0.1730E+00  0.1730E+00
     -2.473  0.0000E+00  0.0000E+00  0.1730E+00  0.1730E+00
     -2.426  0.0000E+00  0.0000E+00  0.1730E+00  0.1730E+00
     -2.378  0.0000E+00  0.0000E+00  0.1740E+00  0.1740E+00
     -2.331  0.0000E+00  0.0000E+00  0.1740E+00  0.1740E+00
     -2.283  0.0000E+00  0.0000E+00  0.1740E+00  0.1740E+00
     -2.235  0.0000E+00  0.0000E+00  0.1750E+00  0.1750E+00
     -2.188  0.0000E+00  0.0000E+00  0.1760E+00  0.1760E+00
     -2.140  0.0000E+00  0.0000E+00  0.1760E+00  0.1760E+00
     -2.093  0.0000E+00  0.0000E+00  0.1770E+00  0.1770E+00
     -2.045  0.0000E+00  0.0000E+00  0.1770E+00  0.1770E+00
     -1.997  0.0000E+00  0.0000E+00  0.1790E+00  0.1790E+00
     -1.950  0.0000E+00  0.0000E+00  0.1790E+00  0.1790E+00
     -1.902  0.0000E+00  0.0000E+00  0.1790E+00  0.1790E+00
     -1.855  0.0000E+00  0.0000E+00  0.1800E+00  0.1800E+00
     -1.807  0.0000E+00  0.0000E+00  0.1810E+00  0.1810E+00
     -1.759  0.0000E+00  0.0000E+00  0.1810E+00  0.1810E+00
     -1.712  0.0000E+00  0.0000E+00  0.1830E+00  0.1830E+00
     -1.664  0.0000E+00  0.0000E+00  0.1840E+00  0.1840E+00
     -1.617  0.0000E+00  0.0000E+00  0.1840E+00  0.1840E+00
     -1.569  0.0000E+00  0.0000E+00  0.1840E+00  0.1840E+00
     -1.521  0.0000E+00  0.0000E+00  0.1840E+00  0.1840E+00
     -1.474  0.0000E+00  0.0000E+00  0.1840E+00  0.1840E+00
     -1.426  0.0000E+00  0.0000E+00  0.1840E+00  0.1840E+00
     -1.379  0.0000E+00  0.0000E+00  0.1850E+00  0.1850E+00
     -1.331  0.0000E+00  0.0000E+00  0.1850E+00  0.1850E+00
     -1.283  0.0000E+00  0.0000E+00  0.1850E+00  0.1850E+00
     -1.236  0.0000E+00  0.0000E+00  0.1850E+00  0.1850E+00
     -1.188  0.0000E+00  0.0000E+00  0.1850E+00  0.1850E+00
     -1.141  0.0000E+00  0.0000E+00  0.1850E+00  0.1850E+00
     -1.093  0.0000E+00  0.0000E+00  0.1850E+00  0.1850E+00
     -1.045  0.0000E+00  0.0000E+00  0.1850E+00  0.1850E+00
     -0.998  0.0000E+00  0.0000E+00  0.1850E+00  0.1850E+00
     -0.950  0.0000E+00  0.0000E+00  0.1850E+00  0.1850E+00
     -0.903  0.0000E+00  0.0000E+00  0.1850E+00  0.1850E+00
     -0.855  0.0000E+00  0.0000E+00  0.1850E+00  0.1850E+00
     -0.808  0.0000E+00  0.0000E+00  0.1850E+00  0.1850E+00
     -0.760  0.0000E+00  0.0000E+00  0.1850E+00  0.1850E+00
     -0.712  0.0000E+00  0.0000E+00  0.1850E+00  0.1850E+00
     -0.665  0.0000E+00  0.0000E+00  0.1860E+00  0.1860E+00
     -0.617  0.0000E+00  0.0000E+00  0.1860E+00  0.1860E+00
     -0.570  0.0000E+00  0.0000E+00  0.1860E+00  0.1860E+00
     -0.522  0.0000E+00  0.0000E+00  0.1860E+00  0.1860E+00
     -0.474  0.0000E+00  0.0000E+00  0.1860E+00  0.1860E+00
     -0.427  0.0000E+00  0.0000E+00  0.1870E+00  0.1870E+00
     -0.379  0.0000E+00  0.0000E+00  0.1870E+00  0.1870E+00
     -0.332  0.0000E+00  0.0000E+00  0.1870E+00  0.1870E+00
     -0.284  0.0000E+00  0.0000E+00  0.1880E+00  0.1880E+00
     -0.236  0.0000E+00  0.0000E+00  0.1880E+00  0.1880E+00
     -0.189  0.0000E+00  0.0000E+00  0.1890E+00  0.1890E+00
     -0.141  0.0000E+00  0.0000E+00  0.1890E+00  0.1890E+00
     -0.094  0.0000E+00  0.0000E+00  0.1900E+00  0.1900E+00
     -0.046  0.0000E+00  0.0000E+00  0.1900E+00  0.1900E+00
      0.002  0.0000E+00  0.0000E+00  0.1910E+00  0.1910E+00
      0.049  0.0000E+00  0.0000E+00  0.1920E+00  0.1920E+00
      0.097  0.0000E+00  0.0000E+00  0.1920E+00  0.1920E+00
      0.144  0.0000E+00  0.0000E+00  0.1950E+00  0.1940E+00
      0.192  0.0000E+00  0.0000E+00  0.1960E+00  0.1960E+00
      0.240  0.0000E+00  0.0000E+00  0.1980E+00  0.1970E+00
      0.287  0.0000E+00  0.0000E+00  0.1990E+00  0.1980E+00
      0.335  0.0000E+00  0.0000E+00  0.2010E+00  0.2000E+00
      0.382  0.0000E+00  0.0000E+00  0.2030E+00  0.2020E+00
      0.430  0.0000E+00  0.0000E+00  0.2040E+00  0.2030E+00
      0.477  0.0000E+00  0.0000E+00  0.2060E+00  0.2050E+00
      0.525  0.0000E+00  0.0000E+00  0.2130E+00  0.2080E+00
      0.573  0.0000E+00  0.0000E+00  0.2160E+00  0.2120E+00
      0.620  0.0000E+00  0.0000E+00  0.2160E+00  0.2160E+00
      0.668  0.0000E+00  0.5984E-09  0.2180E+00  0.2160E+00
      0.715  0.0000E+00  0.0000E+00  0.2200E+00  0.2190E+00
      0.763  0.0000E+00  0.0000E+00  0.2240E+00  0.2200E+00
      0.811  0.0000E+00  0.0000E+00  0.2260E+00  0.2240E+00
      0.858  0.0000E+00  0.0000E+00  0.2290E+00  0.2270E+00
      0.906  0.0000E+00  0.0000E+00  0.2290E+00  0.2290E+00
      0.953  0.0000E+00  0.0000E+00  0.2320E+00  0.2310E+00
      1.001  0.0000E+00  0.0000E+00  0.2340E+00  0.2320E+00
      1.049  0.0000E+00  0.0000E+00  0.2350E+00  0.2340E+00
      1.096  0.0000E+00  0.0000E+00  0.2400E+00  0.2350E+00
      1.144  0.0000E+00  0.0000E+00  0.2430E+00  0.2390E+00
      1.191  0.0000E+00  0.0000E+00  0.2440E+00  0.2430E+00
      1.239  0.0000E+00  0.0000E+00  0.2440E+00  0.2440E+00
      1.287  0.0000E+00  0.0000E+00  0.2440E+00  0.2440E+00
      1.334  0.0000E+00  0.0000E+00  0.2440E+00  0.2440E+00
      1.382  0.0000E+00  0.0000E+00  0.2440E+00  0.2440E+00
      1.429  0.0000E+00  0.0000E+00  0.2440E+00  0.2440E+00
      1.477  0.0000E+00  0.0000E+00  0.2440E+00  0.2440E+00
      1.525  0.0000E+00  0.0000E+00  0.2440E+00  0.2440E+00
      1.572  0.0000E+00  0.0000E+00  0.2440E+00  0.2440E+00
      1.620  0.0000E+00  0.0000E+00  0.2440E+00  0.2440E+00
      1.667  0.0000E+00  0.0000E+00  0.2440E+00  0.2440E+00
      1.715  0.0000E+00  0.0000E+00  0.2440E+00  0.2440E+00
      1.763  0.0000E+00  0.0000E+00  0.2440E+00  0.2440E+00
      1.810  0.0000E+00  0.0000E+00  0.2440E+00  0.2440E+00
      1.858  0.0000E+00  0.0000E+00  0.2440E+00  0.2440E+00
      1.85770999    -12.42036367  301     -4.16287774      1.00000000
    -12.420  0.0000E+00  0.0000E+00  0.0000E+00  0.0000E+00  0.0000E+00  0.0000E+00  0.0000E+00  0.0000E+00  0.0000E+00  0.0000E+00  0.0000E+00  0.0000E+00  0.0000E+00  0.0000E+00  0.0000E+00  0.0000E+00  0.0000E+00  0.0000E+00
    -12.373  0.0000E+00  0.0000E+00  0.0000E+00  0.0000E+00  0.0000E+00  0.0000E+00  0.0000E+00  0.0000E+00  0.0000E+00  0.0000E+00  0.0000E+00  0.0000E+00  0.0000E+00  0.0000E+00  0.0000E+00  0.0000E+00  0.0000E+00  0.0000E+00
    -12.325  0.0000E+00  0.0000E+00  0.0000E+00  0.0000E+00  0.0000E+00  0.0000E+00  0.0000E+00  0.0000E+00  0.0000E+00  0.0000E+00  0.0000E+00  0.0000E+00  0.0000E+00  0.0000E+00  0.0000E+00  0.0000E+00  0.0000E+00  0.0000E+00
    -12.278  0.0000E+00  0.0000E+00  0.0000E+00  0.0000E+00  0.0000E+00  0.0000E+00  0.0000E+00  0.0000E+00  0.0000E+00  0.0000E+00  0.0000E+00  0.0000E+00  0.0000E+00  0.0000E+00  0.0000E+00  0.0000E+00  0.0000E+00  0.0000E+00
    -12.230  0.0000E+00  0.0000E+00  0.0000E+00  0.0000E+00  0.0000E+00  0.0000E+00  0.0000E+00  0.0000E+00  0.0000E+00  0.0000E+00  0.0000E+00  0.0000E+00  0.0000E+00  0.0000E+00  0.0000E+00  0.0000E+00  0.0000E+00  0.0000E+00
    -12.182  0.0000E+00  0.0000E+00  0.0000E+00  0.0000E+00  0.0000E+00  0.0000E+00  0.0000E+00  0.0000E+00  0.0000E+00  0.0000E+00  0.0000E+00  0.0000E+00  0.0000E+00  0.0000E+00  0.0000E+00  0.0000E+00  0.0000E+00  0.0000E+00
    -12.135  0.0000E+00  0.0000E+00  0.0000E+00  0.0000E+00  0.0000E+00  0.0000E+00  0.0000E+00  0.0000E+00  0.0000E+00  0.0000E+00  0.0000E+00  0.0000E+00  0.0000E+00  0.0000E+00  0.0000E+00  0.0000E+00  0.0000E+00  0.0000E+00
    -12.087  0.0000E+00  0.0000E+00  0.0000E+00  0.0000E+00  0.0000E+00  0.0000E+00  0.0000E+00  0.0000E+00  0.0000E+00  0.0000E+00  0.0000E+00  0.0000E+00  0.0000E+00  0.0000E+00  0.0000E+00  0.0000E+00  0.0000E+00  0.0000E+00
    -12.040  0.0000E+00  0.0000E+00  0.0000E+00  0.0000E+00  0.0000E+00  0.0000E+00  0.0000E+00  0.0000E+00  0.0000E+00  0.0000E+00  0.0000E+00  0.0000E+00  0.0000E+00  0.0000E+00  0.0000E+00  0.0000E+00  0.0000E+00  0.0000E+00
    -11.992  0.0000E+00  0.0000E+00  0.0000E+00  0.0000E+00  0.0000E+00  0.0000E+00  0.0000E+00  0.0000E+00  0.0000E+00  0.0000E+00  0.0000E+00  0.0000E+00  0.0000E+00  0.0000E+00  0.0000E+00  0.0000E+00  0.0000E+00  0.0000E+00
    -11.944  0.0000E+00  0.0000E+00  0.0000E+00  0.0000E+00  0.0000E+00  0.0000E+00  0.0000E+00  0.0000E+00  0.0000E+00  0.0000E+00  0.0000E+00  0.0000E+00  0.0000E+00  0.0000E+00  0.0000E+00  0.0000E+00  0.0000E+00  0.0000E+00
    -11.897  0.0000E+00  0.0000E+00  0.0000E+00  0.0000E+00  0.0000E+00  0.0000E+00  0.0000E+00  0.0000E+00  0.0000E+00  0.0000E+00  0.0000E+00  0.0000E+00  0.0000E+00  0.0000E+00  0.0000E+00  0.0000E+00  0.0000E+00  0.0000E+00
    -11.849  0.0000E+00  0.0000E+00  0.0000E+00  0.0000E+00  0.0000E+00  0.0000E+00  0.0000E+00  0.0000E+00  0.0000E+00  0.0000E+00  0.0000E+00  0.0000E+00  0.0000E+00  0.0000E+00  0.0000E+00  0.0000E+00  0.0000E+00  0.0000E+00
    -11.802  0.0000E+00  0.0000E+00  0.0000E+00  0.0000E+00  0.0000E+00  0.0000E+00  0.0000E+00  0.0000E+00  0.0000E+00  0.0000E+00  0.0000E+00  0.0000E+00  0.0000E+00  0.0000E+00  0.0000E+00  0.0000E+00  0.0000E+00  0.0000E+00
    -11.754  0.0000E+00  0.0000E+00  0.0000E+00  0.0000E+00  0.0000E+00  0.0000E+00  0.0000E+00  0.0000E+00  0.0000E+00  0.0000E+00  0.0000E+00  0.0000E+00  0.0000E+00  0.0000E+00  0.0000E+00  0.0000E+00  0.0000E+00  0.0000E+00
    -11.706  0.0000E+00  0.0000E+00  0.0000E+00  0.0000E+00  0.0000E+00  0.0000E+00  0.0000E+00  0.0000E+00  0.0000E+00  0.0000E+00  0.0000E+00  0.0000E+00  0.0000E+00  0.0000E+00  0.0000E+00  0.0000E+00  0.0000E+00  0.0000E+00
    -11.659  0.0000E+00  0.0000E+00  0.0000E+00  0.0000E+00  0.0000E+00  0.0000E+00  0.0000E+00  0.0000E+00  0.0000E+00  0.0000E+00  0.0000E+00  0.0000E+00  0.0000E+00  0.0000E+00  0.0000E+00  0.0000E+00  0.0000E+00  0.0000E+00
    -11.611  0.0000E+00  0.0000E+00  0.0000E+00  0.0000E+00  0.0000E+00  0.0000E+00  0.0000E+00  0.0000E+00  0.0000E+00  0.0000E+00  0.0000E+00  0.0000E+00  0.0000E+00  0.0000E+00  0.0000E+00  0.0000E+00  0.0000E+00  0.0000E+00
    -11.564  0.0000E+00  0.0000E+00  0.0000E+00  0.0000E+00  0.0000E+00  0.0000E+00  0.0000E+00  0.0000E+00  0.0000E+00  0.0000E+00  0.0000E+00  0.0000E+00  0.0000E+00  0.0000E+00  0.0000E+00  0.0000E+00  0.0000E+00  0.0000E+00
    -11.516  0.0000E+00  0.0000E+00  0.0000E+00  0.0000E+00  0.0000E+00  0.0000E+00  0.0000E+00  0.0000E+00  0.0000E+00  0.0000E+00  0.0000E+00  0.0000E+00  0.0000E+00  0.0000E+00  0.0000E+00  0.0000E+00  0.0000E+00  0.0000E+00
    -11.468  0.0000E+00  0.0000E+00  0.0000E+00  0.0000E+00  0.0000E+00  0.0000E+00  0.0000E+00  0.0000E+00  0.0000E+00  0.0000E+00  0.0000E+00  0.0000E+00  0.0000E+00  0.0000E+00  0.0000E+00  0.0000E+00  0.0000E+00  0.0000E+00
    -11.421  0.0000E+00  0.0000E+00  0.0000E+00  0.0000E+00  0.0000E+00  0.0000E+00  0.0000E+00  0.0000E+00  0.0000E+00  0.0000E+00  0.0000E+00  0.0000E+00  0.0000E+00  0.0000E+00  0.0000E+00  0.0000E+00  0.0000E+00  0.0000E+00
    -11.373  0.0000E+00  0.0000E+00  0.0000E+00  0.0000E+00  0.0000E+00  0.0000E+00  0.0000E+00  0.0000E+00  0.0000E+00  0.0000E+00  0.0000E+00  0.0000E+00  0.0000E+00  0.0000E+00  0.0000E+00  0.0000E+00  0.0000E+00  0.0000E+00
    -11.326  0.0000E+00  0.0000E+00  0.0000E+00  0.0000E+00  0.0000E+00  0.0000E+00  0.0000E+00  0.0000E+00  0.0000E+00  0.0000E+00  0.0000E+00  0.0000E+00  0.0000E+00  0.0000E+00  0.0000E+00  0.0000E+00  0.0000E+00  0.0000E+00
    -11.278  0.0000E+00  0.0000E+00  0.0000E+00  0.0000E+00  0.0000E+00  0.0000E+00  0.0000E+00  0.0000E+00  0.0000E+00  0.0000E+00  0.0000E+00  0.0000E+00  0.0000E+00  0.0000E+00  0.0000E+00  0.0000E+00  0.0000E+00  0.0000E+00
    -11.231  0.0000E+00  0.0000E+00  0.0000E+00  0.0000E+00  0.0000E+00  0.0000E+00  0.0000E+00  0.0000E+00  0.0000E+00  0.0000E+00  0.0000E+00  0.0000E+00  0.0000E+00  0.0000E+00  0.0000E+00  0.0000E+00  0.0000E+00  0.0000E+00
    -11.183  0.0000E+00  0.0000E+00  0.0000E+00  0.0000E+00  0.0000E+00  0.0000E+00  0.0000E+00  0.0000E+00  0.0000E+00  0.0000E+00  0.0000E+00  0.0000E+00  0.0000E+00  0.0000E+00  0.0000E+00  0.0000E+00  0.0000E+00  0.0000E+00
    -11.135  0.0000E+00  0.0000E+00  0.0000E+00  0.0000E+00  0.0000E+00  0.0000E+00  0.0000E+00  0.0000E+00  0.0000E+00  0.0000E+00  0.0000E+00  0.0000E+00  0.0000E+00  0.0000E+00  0.0000E+00  0.0000E+00  0.0000E+00  0.0000E+00
    -11.088  0.0000E+00  0.0000E+00  0.0000E+00  0.0000E+00  0.0000E+00  0.0000E+00  0.0000E+00  0.0000E+00  0.0000E+00  0.0000E+00  0.0000E+00  0.0000E+00  0.0000E+00  0.0000E+00  0.0000E+00  0.0000E+00  0.0000E+00  0.0000E+00
    -11.040  0.0000E+00  0.0000E+00  0.0000E+00  0.0000E+00  0.0000E+00  0.0000E+00  0.0000E+00  0.0000E+00  0.0000E+00  0.0000E+00  0.0000E+00  0.0000E+00  0.0000E+00  0.0000E+00  0.0000E+00  0.0000E+00  0.0000E+00  0.0000E+00
    -10.993  0.0000E+00  0.0000E+00  0.0000E+00  0.0000E+00  0.0000E+00  0.0000E+00  0.0000E+00  0.0000E+00  0.0000E+00  0.0000E+00  0.0000E+00  0.0000E+00  0.0000E+00  0.0000E+00  0.0000E+00  0.0000E+00  0.0000E+00  0.0000E+00
    -10.945  0.0000E+00  0.0000E+00  0.0000E+00  0.0000E+00  0.0000E+00  0.0000E+00  0.0000E+00  0.0000E+00  0.0000E+00  0.0000E+00  0.0000E+00  0.0000E+00  0.0000E+00  0.0000E+00  0.0000E+00  0.0000E+00  0.0000E+00  0.0000E+00
    -10.897  0.0000E+00  0.0000E+00  0.0000E+00  0.0000E+00  0.0000E+00  0.0000E+00  0.0000E+00  0.0000E+00  0.0000E+00  0.0000E+00  0.0000E+00  0.0000E+00  0.0000E+00  0.0000E+00  0.0000E+00  0.0000E+00  0.0000E+00  0.0000E+00
    -10.850  0.0000E+00  0.0000E+00  0.0000E+00  0.0000E+00  0.0000E+00  0.0000E+00  0.0000E+00  0.0000E+00  0.0000E+00  0.0000E+00  0.0000E+00  0.0000E+00  0.0000E+00  0.0000E+00  0.0000E+00  0.0000E+00  0.0000E+00  0.0000E+00
    -10.802  0.0000E+00  0.0000E+00  0.0000E+00  0.0000E+00  0.0000E+00  0.0000E+00  0.0000E+00  0.0000E+00  0.0000E+00  0.0000E+00  0.0000E+00  0.0000E+00  0.0000E+00  0.0000E+00  0.0000E+00  0.0000E+00  0.0000E+00  0.0000E+00
    -10.755  0.0000E+00  0.0000E+00  0.0000E+00  0.0000E+00  0.0000E+00  0.0000E+00  0.0000E+00  0.0000E+00  0.0000E+00  0.0000E+00  0.0000E+00  0.0000E+00  0.0000E+00  0.0000E+00  0.0000E+00  0.0000E+00  0.0000E+00  0.0000E+00
    -10.707  0.0000E+00  0.0000E+00  0.0000E+00  0.0000E+00  0.0000E+00  0.0000E+00  0.0000E+00  0.0000E+00  0.0000E+00  0.0000E+00  0.0000E+00  0.0000E+00  0.0000E+00  0.0000E+00  0.0000E+00  0.0000E+00  0.0000E+00  0.0000E+00
    -10.659  0.0000E+00  0.0000E+00  0.0000E+00  0.0000E+00  0.0000E+00  0.0000E+00  0.0000E+00  0.0000E+00  0.0000E+00  0.0000E+00  0.0000E+00  0.0000E+00  0.0000E+00  0.0000E+00  0.0000E+00  0.0000E+00  0.0000E+00  0.0000E+00
    -10.612  0.0000E+00  0.0000E+00  0.0000E+00  0.0000E+00  0.0000E+00  0.0000E+00  0.0000E+00  0.0000E+00  0.0000E+00  0.0000E+00  0.0000E+00  0.0000E+00  0.0000E+00  0.0000E+00  0.0000E+00  0.0000E+00  0.0000E+00  0.0000E+00
    -10.564  0.0000E+00  0.0000E+00  0.0000E+00  0.0000E+00  0.0000E+00  0.0000E+00  0.0000E+00  0.0000E+00  0.0000E+00  0.0000E+00  0.0000E+00  0.0000E+00  0.0000E+00  0.0000E+00  0.0000E+00  0.0000E+00  0.0000E+00  0.0000E+00
    -10.517  0.0000E+00  0.0000E+00  0.0000E+00  0.0000E+00  0.0000E+00  0.0000E+00  0.0000E+00  0.0000E+00  0.0000E+00  0.0000E+00  0.0000E+00  0.0000E+00  0.0000E+00  0.0000E+00  0.0000E+00  0.0000E+00  0.0000E+00  0.0000E+00
    -10.469  0.0000E+00  0.0000E+00  0.0000E+00  0.0000E+00  0.0000E+00  0.0000E+00  0.0000E+00  0.0000E+00  0.0000E+00  0.0000E+00  0.0000E+00  0.0000E+00  0.0000E+00  0.0000E+00  0.0000E+00  0.0000E+00  0.0000E+00  0.0000E+00
    -10.421  0.0000E+00  0.0000E+00  0.0000E+00  0.0000E+00  0.0000E+00  0.0000E+00  0.0000E+00  0.0000E+00  0.0000E+00  0.0000E+00  0.0000E+00  0.0000E+00  0.0000E+00  0.0000E+00  0.0000E+00  0.0000E+00  0.0000E+00  0.0000E+00
    -10.374  0.0000E+00  0.0000E+00  0.0000E+00  0.0000E+00  0.0000E+00  0.0000E+00  0.0000E+00  0.0000E+00  0.0000E+00  0.0000E+00  0.0000E+00  0.0000E+00  0.0000E+00  0.0000E+00  0.0000E+00  0.0000E+00  0.0000E+00  0.0000E+00
    -10.326  0.0000E+00  0.0000E+00  0.0000E+00  0.0000E+00  0.0000E+00  0.0000E+00  0.0000E+00  0.0000E+00  0.0000E+00  0.0000E+00  0.0000E+00  0.0000E+00  0.0000E+00  0.0000E+00  0.0000E+00  0.0000E+00  0.0000E+00  0.0000E+00
    -10.279  0.0000E+00  0.0000E+00  0.0000E+00  0.0000E+00  0.0000E+00  0.0000E+00  0.0000E+00  0.0000E+00  0.0000E+00  0.0000E+00  0.0000E+00  0.0000E+00  0.0000E+00  0.0000E+00  0.0000E+00  0.0000E+00  0.0000E+00  0.0000E+00
    -10.231  0.1643E-15  0.9552E-17  0.1683E-15  0.3874E-16  0.5979E-18  0.1386E-17  0.5075E-02  0.5102E-02  0.8247E-02  0.8292E-02  0.1215E-16  0.1028E-16  0.3127E-17  0.4597E-16  0.5374E-04  0.5403E-04  0.2926E-16  0.4331E-16
    -10.183  0.0000E+00  0.0000E+00  0.0000E+00  0.0000E+00  0.0000E+00  0.0000E+00  0.0000E+00  0.0000E+00  0.0000E+00  0.0000E+00  0.0000E+00  0.0000E+00  0.0000E+00  0.0000E+00  0.0000E+00  0.0000E+00  0.0000E+00  0.0000E+00
    -10.136  0.0000E+00  0.0000E+00  0.0000E+00  0.0000E+00  0.0000E+00  0.0000E+00  0.0000E+00  0.0000E+00  0.0000E+00  0.0000E+00  0.0000E+00  0.0000E+00  0.0000E+00  0.0000E+00  0.0000E+00  0.0000E+00  0.0000E+00  0.0000E+00
    -10.088  0.0000E+00  0.0000E+00  0.0000E+00  0.0000E+00  0.0000E+00  0.0000E+00  0.0000E+00  0.0000E+00  0.0000E+00  0.0000E+00  0.0000E+00  0.0000E+00  0.0000E+00  0.0000E+00  0.0000E+00  0.0000E+00  0.0000E+00  0.0000E+00
    -10.041  0.0000E+00  0.0000E+00  0.0000E+00  0.0000E+00  0.0000E+00  0.0000E+00  0.0000E+00  0.0000E+00  0.0000E+00  0.0000E+00  0.0000E+00  0.0000E+00  0.0000E+00  0.0000E+00  0.0000E+00  0.0000E+00  0.0000E+00  0.0000E+00