       N       E                     dE             d eps       ncg     rms          rms(c)
RMM:   1     0.303593570763E+04    0.30359E+04   -0.40636E+04   488   0.468E+02
RMM:   2     0.205440328024E+04   -0.98153E+03   -0.10260E+04   488   0.111E+02
RMM:   3     0.131367719027E+04   -0.74073E+03   -0.95174E+03   488   0.112E+02
RMM:   4     0.603362232176E+03   -0.71031E+03   -0.65743E+03   488   0.116E+02
RMM:   5     0.244909150736E+03   -0.35845E+03   -0.27566E+03   488   0.114E+02
RMM:   6     0.646303125479E+02   -0.18028E+03   -0.11868E+03   488   0.871E+01
RMM:   7     0.857578143194E+00   -0.63773E+02   -0.56922E+02   488   0.676E+01
RMM:   8    -0.255134287215E+02   -0.26371E+02   -0.19780E+02   488   0.439E+01
RMM:   9    -0.529519713185E+02   -0.27439E+02   -0.24707E+02  1135   0.296E+01
RMM:  10    -0.576833607903E+02   -0.47314E+01   -0.34932E+01  1138   0.116E+01
RMM:  11    -0.602433727713E+02   -0.25600E+01   -0.13366E+01  1117   0.523E+00
RMM:  12    -0.607224333929E+02   -0.47906E+00   -0.24393E+00  1056   0.154E+00    0.979E+01
RMM:  13     0.109828490489E+03    0.17055E+03   -0.10722E+03   977   0.108E+02    0.486E+01
RMM:  14     0.146180470280E+03    0.36352E+02   -0.27952E+02   978   0.730E+01    0.230E+01
RMM:  15     0.155062165626E+03    0.88817E+01   -0.30192E+01  1050   0.127E+01    0.164E+01
RMM:  16     0.109491046562E+03   -0.45571E+02   -0.19203E+01   981   0.147E+01    0.158E+01
RMM:  17     0.795359785492E+02   -0.29955E+02   -0.17610E+01   980   0.122E+01    0.113E+01
RMM:  18     0.595314113998E+02   -0.20005E+02   -0.11600E+01   978   0.773E+00    0.891E+00
RMM:  19     0.187342145339E+02   -0.40797E+02   -0.28618E+01   978   0.876E+00    0.693E+00
RMM:  20    -0.258307512912E+02   -0.44565E+02   -0.46043E+01   978   0.105E+01    0.547E+00
RMM:  21    -0.418056121140E+02   -0.15975E+02   -0.19754E+01   977   0.701E+00    0.459E+00
RMM:  22    -0.534074101688E+02   -0.11602E+02   -0.12656E+01   976   0.553E+00    0.375E+00
RMM:  23    -0.633960238194E+02   -0.99886E+01   -0.81392E+00   977   0.454E+00    0.291E+00
RMM:  24    -0.686110726370E+02   -0.52150E+01   -0.29431E+00   982   0.293E+00    0.229E+00
RMM:  25    -0.732982813823E+02   -0.46872E+01   -0.11747E+00   977   0.179E+00    0.248E+00
RMM:  26    -0.752853005398E+02   -0.19870E+01   -0.42849E-01   979   0.100E+00    0.166E+00
RMM:  27    -0.790057362387E+02   -0.37204E+01   -0.45496E-01   977   0.120E+00    0.115E+00
RMM:  28    -0.814164532686E+02   -0.24107E+01   -0.20147E-01   978   0.853E-01    0.870E-01
RMM:  29    -0.827461223045E+02   -0.13297E+01   -0.73771E-02   977   0.506E-01    0.649E-01
RMM:  30    -0.841481302000E+02   -0.14020E+01   -0.46320E-02   977   0.405E-01    0.397E-01
RMM:  31    -0.849429163909E+02   -0.79479E+00   -0.13665E-02   978   0.351E-01    0.282E-01
RMM:  32    -0.853073537004E+02   -0.36444E+00   -0.42458E-03   978   0.209E-01    0.189E-01
RMM:  33    -0.854817250423E+02   -0.17437E+00   -0.30061E-03   976   0.134E-01    0.141E-01
RMM:  34    -0.856363966912E+02   -0.15467E+00   -0.14625E-03   974   0.953E-02    0.976E-02
RMM:  35    -0.857676065364E+02   -0.13121E+00   -0.62964E-04   843   0.659E-02    0.765E-02
RMM:  36    -0.858750718687E+02   -0.10747E+00   -0.55869E-04   746   0.587E-02    0.584E-02
RMM:  37    -0.859294782125E+02   -0.54406E-01   -0.38021E-04   690   0.423E-02    0.428E-02
RMM:  38    -0.859534670135E+02   -0.23989E-01   -0.20159E-04   661   0.432E-02    0.351E-02
RMM:  39    -0.859673416351E+02   -0.13875E-01   -0.14913E-04   660   0.357E-02    0.228E-02
RMM:  40    -0.859777830185E+02   -0.10441E-01   -0.70106E-05   650   0.252E-02    0.157E-02
RMM:  41    -0.859851878012E+02   -0.74048E-02   -0.35064E-05   644   0.200E-02    0.942E-03
RMM:  42    -0.859902994626E+02   -0.51117E-02   -0.16403E-05   630   0.120E-02    0.605E-03
RMM:  43    -0.859933147107E+02   -0.30152E-02   -0.91034E-06   626   0.107E-02    0.448E-03
RMM:  44    -0.859941121864E+02   -0.79748E-03   -0.39769E-06   581   0.669E-03    0.221E-03
RMM:  45    -0.859944166381E+02   -0.30445E-03   -0.17391E-06   470   0.452E-03    0.142E-03
RMM:  46    -0.859945883095E+02   -0.17167E-03   -0.77512E-07   341   0.365E-03    0.819E-04
RMM:  47    -0.859946799795E+02   -0.91670E-04   -0.70796E-07   337   0.363E-03
   1 F= -.85994680E+02 E0= -.85994680E+02  d E =-.859947E+02  mag=     0.0012
       N       E                     dE             d eps       ncg     rms          rms(c)
RMM:   1    -0.859946224726E+02   -0.34163E-04   -0.76465E-02   978   0.533E-01    0.207E-02
RMM:   2    -0.859950438671E+02   -0.42139E-03   -0.39900E-03   972   0.306E-01    0.280E-02
RMM:   3    -0.859950453599E+02   -0.14929E-05   -0.77332E-05   604   0.328E-02
   2 F= -.85995045E+02 E0= -.85995045E+02  d E =-.365380E-03  mag=     0.0010
       N       E                     dE             d eps       ncg     rms          rms(c)
RMM:   1    -0.859950734457E+02   -0.29579E-04   -0.94350E-04   921   0.646E-02    0.141E-02
RMM:   2    -0.859951110180E+02   -0.37572E-04   -0.27578E-04   674   0.796E-02
   3 F= -.85995111E+02 E0= -.85995111E+02  d E =-.431038E-03  mag=     0.0009
