PROCAR lm decomposed
# of k-points:    1         # of bands: 244         # of ions:  30

 k-point    1 :    0.00000000 0.00000000 0.00000000     weight = 1.00000000

band   1 # energy  -11.77135823 # occ.  1.00000000
 
ion      s     py     pz     px    dxy    dyz    dz2    dxz    dx2    tot
  1  0.006  0.002  0.000  0.000  0.000  0.000  0.000  0.000  0.000  0.008
  2  0.009  0.000  0.002  0.000  0.000  0.000  0.001  0.000  0.000  0.012
  3  0.007  0.000  0.000  0.001  0.000  0.000  0.000  0.000  0.000  0.010
  4  0.007  0.000  0.000  0.001  0.000  0.000  0.000  0.000  0.000  0.010
  5  0.009  0.001  0.002  0.000  0.000  0.001  0.000  0.000  0.000  0.012
  6  0.007  0.001  0.000  0.001  0.000  0.000  0.000  0.000  0.000  0.010
  7  0.007  0.001  0.000  0.001  0.000  0.000  0.000  0.000  0.000  0.010
  8  0.007  0.001  0.000  0.001  0.000  0.000  0.000  0.000  0.000  0.009
  9  0.007  0.001  0.000  0.001  0.000  0.000  0.000  0.000  0.000  0.009
 10  0.007  0.000  0.001  0.000  0.000  0.000  0.000  0.000  0.000  0.010
 11  0.007  0.000  0.000  0.001  0.000  0.000  0.000  0.000  0.000  0.009
 12  0.007  0.000  0.000  0.001  0.000  0.000  0.000  0.000  0.000  0.009
 13  0.008  0.001  0.001  0.000  0.000  0.000  0.000  0.000  0.000  0.011
 14  0.008  0.001  0.001  0.000  0.000  0.000  0.000  0.000  0.000  0.011
 15  0.011  0.000  0.001  0.001  0.000  0.000  0.000  0.000  0.000  0.014
 16  0.011  0.000  0.001  0.001  0.000  0.000  0.000  0.000  0.000  0.014
 17  0.014  0.000  0.001  0.001  0.000  0.000  0.000  0.000  0.000  0.016
 18  0.014  0.000  0.001  0.001  0.000  0.000  0.000  0.000  0.000  0.016
 19  0.013  0.000  0.000  0.002  0.000  0.000  0.000  0.000  0.000  0.015
 20  0.013  0.000  0.000  0.002  0.000  0.000  0.000  0.000  0.000  0.015
 21  0.016  0.002  0.000  0.001  0.000  0.000  0.000  0.000  0.000  0.019
 22  0.016  0.002  0.000  0.001  0.000  0.000  0.000  0.000  0.000  0.019
 23  0.020  0.000  0.003  0.000  0.000  0.000  0.000  0.000  0.000  0.024
 24  0.018  0.001  0.001  0.000  0.000  0.000  0.000  0.000  0.000  0.022
 25  0.018  0.001  0.001  0.000  0.000  0.000  0.000  0.000  0.000  0.022
 26  0.015  0.003  0.000  0.000  0.000  0.000  0.000  0.000  0.000  0.018
 27  0.072  0.000  0.001  0.000  0.000  0.000  0.000  0.000  0.000  0.073
 28  0.062  0.000  0.000  0.001  0.000  0.000  0.000  0.000  0.000  0.064
 29  0.062  0.000  0.000  0.001  0.000  0.000  0.000  0.000  0.000  0.064
 30  0.059  0.001  0.000  0.000  0.000  0.000  0.000  0.000  0.000  0.060
tot  0.537  0.020  0.021  0.020  0.003  0.002  0.003  0.002  0.002  0.610
 
band   2 # energy  -10.29315765 # occ.  1.00000000
 
ion      s     py     pz     px    dxy    dyz    dz2    dxz    dx2    tot
  1  0.030  0.006  0.000  0.000  0.000  0.000  0.001  0.000  0.001  0.038
  2  0.000  0.001  0.000  0.000  0.000  0.001  0.000  0.000  0.000  0.002
  3  0.006  0.000  0.000  0.001  0.000  0.000  0.000  0.001  0.001  0.009
  4  0.006  0.000  0.000  0.001  0.000  0.000  0.000  0.001  0.001  0.009
  5  0.010  0.000  0.002  0.000  0.000  0.000  0.001  0.000  0.000  0.013
  6  0.020  0.002  0.000  0.002  0.001  0.000  0.000  0.000  0.000  0.024
  7  0.020  0.002  0.000  0.002  0.001  0.000  0.000  0.000  0.000  0.024
  8  0.020  0.001  0.001  0.003  0.000  0.000  0.000  0.001  0.000  0.025
  9  0.020  0.001  0.001  0.003  0.000  0.000  0.000  0.001  0.000  0.025
 10  0.014  0.000  0.003  0.000  0.000  0.000  0.002  0.000  0.000  0.019
 11  0.005  0.000  0.000  0.001  0.000  0.000  0.000  0.000  0.000  0.008
 12  0.005  0.000  0.000  0.001  0.000  0.000  0.000  0.000  0.000  0.008
 13  0.017  0.000  0.003  0.000  0.000  0.000  0.001  0.000  0.000  0.022
 14  0.017  0.000  0.003  0.000  0.000  0.000  0.001  0.000  0.000  0.022
 15  0.001  0.001  0.000  0.000  0.001  0.001  0.000  0.000  0.000  0.005
 16  0.001  0.001  0.000  0.000  0.001  0.001  0.000  0.000  0.000  0.005
 17  0.002  0.002  0.000  0.001  0.001  0.002  0.000  0.000  0.000  0.009
 18  0.002  0.002  0.000  0.001  0.001  0.002  0.000  0.000  0.000  0.009
 19  0.002  0.002  0.000  0.001  0.002  0.000  0.000  0.000  0.001  0.007
 20  0.002  0.002  0.000  0.001  0.002  0.000  0.000  0.000  0.001  0.007
 21  0.037  0.001  0.002  0.002  0.000  0.000  0.001  0.000  0.001  0.043
 22  0.037  0.001  0.002  0.002  0.000  0.000  0.001  0.000  0.001  0.043
 23  0.001  0.003  0.000  0.000  0.000  0.004  0.000  0.000  0.000  0.009
 24  0.015  0.000  0.002  0.000  0.000  0.000  0.001  0.000  0.001  0.020
 25  0.015  0.000  0.002  0.000  0.000  0.000  0.001  0.000  0.001  0.020
 26  0.041  0.004  0.000  0.000  0.000  0.000  0.000  0.000  0.000  0.046
 27  0.005  0.010  0.000  0.000  0.000  0.003  0.000  0.000  0.000  0.018
 28  0.025  0.007  0.000  0.000  0.001  0.000  0.000  0.000  0.001  0.034
 29  0.025  0.007  0.000  0.000  0.001  0.000  0.000  0.000  0.001  0.034
 30  0.060  0.005  0.000  0.000  0.000  0.000  0.002  0.000  0.000  0.068
tot  0.458  0.062  0.023  0.021  0.012  0.016  0.013  0.005  0.014  0.623
 
band   3 # energy  -10.23110018 # occ.  1.00000000
 
ion      s     py     pz     px    dxy    dyz    dz2    dxz    dx2    tot
  1  0.000  0.000  0.000  0.000  0.001  0.000  0.000  0.000  0.000  0.001
  2  0.000  0.000  0.000  0.001  0.000  0.000  0.000  0.001  0.000  0.002
  3  0.031  0.000  0.002  0.003  0.000  0.000  0.000  0.002  0.000  0.038
  4  0.031  0.000  0.002  0.003  0.000  0.000  0.000  0.002  0.000  0.038
  5  0.000  0.000  0.000  0.000  0.000  0.000  0.000  0.001  0.000  0.001
  6  0.022  0.004  0.000  0.000  0.000  0.000  0.000  0.000  0.002  0.029
  7  0.022  0.004  0.000  0.000  0.000  0.000  0.000  0.000  0.002  0.029
  8  0.006  0.001  0.000  0.000  0.000  0.000  0.000  0.000  0.001  0.008
  9  0.006  0.001  0.000  0.000  0.000  0.000  0.000  0.000  0.001  0.008
 10  0.000  0.000  0.000  0.001  0.000  0.000  0.000  0.001  0.000  0.002
 11  0.030  0.000  0.002  0.003  0.000  0.000  0.000  0.001  0.000  0.036
 12  0.030  0.000  0.002  0.003  0.000  0.000  0.000  0.001  0.000  0.036
 13  0.007  0.001  0.001  0.001  0.000  0.001  0.000  0.001  0.000  0.012
 14  0.007  0.001  0.001  0.001  0.000  0.001  0.000  0.001  0.000  0.012
 15  0.011  0.000  0.002  0.000  0.000  0.000  0.001  0.000  0.000  0.014
 16  0.011  0.000  0.002  0.000  0.000  0.000  0.001  0.000  0.000  0.014
 17  0.019  0.000  0.003  0.000  0.000  0.001  0.001  0.000  0.001  0.024
 18  0.019  0.000  0.003  0.000  0.000  0.001  0.001  0.000  0.001  0.024
 19  0.035  0.002  0.000  0.002  0.000  0.000  0.000  0.000  0.001  0.040
 20  0.035  0.002  0.000  0.002  0.000  0.000  0.000  0.000  0.001  0.040
 21  0.005  0.001  0.000  0.000  0.000  0.000  0.000  0.000  0.001  0.007
 22  0.005  0.001  0.000  0.000  0.000  0.000  0.000  0.000  0.001  0.007
 23  0.000  0.000  0.000  0.003  0.000  0.000  0.000  0.005  0.000  0.008
 24  0.012  0.001  0.002  0.001  0.000  0.000  0.001  0.002  0.000  0.019
 25  0.012  0.001  0.002  0.001  0.000  0.000  0.001  0.002  0.000  0.019
 26  0.000  0.000  0.000  0.004  0.005  0.000  0.000  0.000  0.000  0.009
 27  0.000  0.000  0.000  0.008  0.001  0.000  0.000  0.002  0.000  0.011
 28  0.053  0.000  0.000  0.007  0.000  0.000  0.000  0.000  0.001  0.061
 29  0.053  0.000  0.000  0.007  0.000  0.000  0.000  0.000  0.001  0.061
 30  0.000  0.000  0.000  0.007  0.002  0.000  0.000  0.000  0.000  0.009
tot  0.457  0.021  0.024  0.061  0.013  0.005  0.006  0.020  0.013  0.620
 
band   4 # energy  -10.17092372 # occ.  1.00000000
 
ion      s     py     pz     px    dxy    dyz    dz2    dxz    dx2    tot
  1  0.002  0.001  0.000  0.000  0.000  0.001  0.000  0.000  0.000  0.005
  2  0.043  0.001  0.007  0.000  0.000  0.001  0.002  0.000  0.000  0.054
  3  0.004  0.000  0.000  0.001  0.000  0.000  0.000  0.000  0.000  0.005
  4  0.004  0.000  0.000  0.001  0.000  0.000  0.000  0.000  0.000  0.005
  5  0.035  0.004  0.003  0.000  0.000  0.003  0.000  0.000  0.001  0.046
  6  0.000  0.000  0.001  0.000  0.000  0.001  0.000  0.000  0.000  0.002
  7  0.000  0.000  0.001  0.000  0.000  0.001  0.000  0.000  0.000  0.002
  8  0.006  0.001  0.000  0.001  0.000  0.000  0.001  0.000  0.000  0.009
  9  0.006  0.001  0.000  0.001  0.000  0.000  0.001  0.000  0.000  0.009
 10  0.022  0.002  0.002  0.000  0.000  0.001  0.000  0.000  0.000  0.027
 11  0.001  0.000  0.000  0.000  0.000  0.000  0.000  0.001  0.000  0.003
 12  0.001  0.000  0.000  0.000  0.000  0.000  0.000  0.001  0.000  0.003
 13  0.009  0.001  0.000  0.000  0.000  0.000  0.000  0.000  0.000  0.011
 14  0.009  0.001  0.000  0.000  0.000  0.000  0.000  0.000  0.000  0.011
 15  0.025  0.000  0.000  0.004  0.000  0.000  0.001  0.000  0.002  0.033
 16  0.025  0.000  0.000  0.004  0.000  0.000  0.001  0.000  0.002  0.033
 17  0.025  0.000  0.001  0.002  0.000  0.000  0.001  0.000  0.000  0.029
 18  0.025  0.000  0.001  0.002  0.000  0.000  0.001  0.000  0.000  0.029
 19  0.000  0.000  0.002  0.000  0.000  0.000  0.000  0.002  0.000  0.005
 20  0.000  0.000  0.002  0.000  0.000  0.000  0.000  0.002  0.000  0.005
 21  0.005  0.001  0.002  0.000  0.001  0.002  0.001  0.001  0.000  0.014
 22  0.005  0.001  0.002  0.000  0.001  0.002  0.001  0.001  0.000  0.014
 23  0.043  0.001  0.003  0.000  0.000  0.000  0.001  0.000  0.000  0.048
 24  0.021  0.003  0.000  0.001  0.002  0.000  0.002  0.000  0.000  0.029
 25  0.021  0.003  0.000  0.001  0.002  0.000  0.002  0.000  0.000  0.029
 26  0.000  0.000  0.001  0.000  0.000  0.002  0.000  0.000  0.000  0.004
 27  0.078  0.000  0.010  0.000  0.000  0.000  0.000  0.000  0.000  0.088
 28  0.005  0.000  0.008  0.000  0.000  0.001  0.001  0.002  0.000  0.018
 29  0.005  0.000  0.008  0.000  0.000  0.001  0.001  0.002  0.000  0.018
 30  0.026  0.000  0.008  0.000  0.000  0.002  0.001  0.000  0.000  0.038
tot  0.451  0.021  0.064  0.022  0.007  0.020  0.023  0.014  0.007  0.629
 
band   5 # energy   -8.87057915 # occ.  1.00000000
 
ion      s     py     pz     px    dxy    dyz    dz2    dxz    dx2    tot
  1  0.000  0.000  0.000  0.004  0.015  0.000  0.000  0.000  0.000  0.020
  2  0.000  0.000  0.000  0.000  0.002  0.000  0.000  0.000  0.000  0.002
  3  0.003  0.002  0.000  0.001  0.004  0.002  0.000  0.002  0.002  0.016
  4  0.003  0.002  0.000  0.001  0.004  0.002  0.000  0.002  0.002  0.016
  5  0.000  0.000  0.000  0.002  0.001  0.000  0.000  0.011  0.000  0.014
  6  0.024  0.003  0.000  0.001  0.001  0.000  0.000  0.000  0.002  0.031
  7  0.024  0.003  0.000  0.001  0.001  0.000  0.000  0.000  0.002  0.031
  8  0.032  0.003  0.001  0.000  0.000  0.001  0.000  0.001  0.001  0.040
  9  0.032  0.003  0.001  0.000  0.000  0.001  0.000  0.001  0.001  0.040
 10  0.000  0.000  0.000  0.002  0.000  0.000  0.000  0.006  0.000  0.008
 11  0.002  0.002  0.000  0.001  0.004  0.002  0.000  0.001  0.002  0.015
 12  0.002  0.002  0.000  0.001  0.004  0.002  0.000  0.001  0.002  0.015
 13  0.006  0.000  0.001  0.000  0.000  0.001  0.002  0.002  0.000  0.013
 14  0.006  0.000  0.001  0.000  0.000  0.001  0.002  0.002  0.000  0.013
 15  0.008  0.001  0.001  0.000  0.002  0.003  0.001  0.000  0.000  0.016
 16  0.008  0.001  0.001  0.000  0.002  0.003  0.001  0.000  0.000  0.016
 17  0.011  0.002  0.001  0.000  0.000  0.005  0.002  0.001  0.000  0.021
 18  0.011  0.002  0.001  0.000  0.000  0.005  0.002  0.001  0.000  0.021
 19  0.027  0.001  0.000  0.002  0.005  0.000  0.001  0.000  0.000  0.038
 20  0.027  0.001  0.000  0.002  0.005  0.000  0.001  0.000  0.000  0.038
 21  0.027  0.002  0.001  0.001  0.001  0.000  0.005  0.001  0.004  0.043
 22  0.027  0.002  0.001  0.001  0.001  0.000  0.005  0.001  0.004  0.043
 23  0.000  0.000  0.000  0.000  0.005  0.000  0.000  0.001  0.000  0.006
 24  0.006  0.000  0.002  0.000  0.000  0.000  0.004  0.003  0.000  0.015
 25  0.006  0.000  0.002  0.000  0.000  0.000  0.004  0.003  0.000  0.015
 26  0.000  0.000  0.000  0.005  0.007  0.000  0.000  0.000  0.000  0.012
 27  0.000  0.000  0.000  0.002  0.043  0.000  0.000  0.001  0.000  0.045
 28  0.007  0.006  0.000  0.001  0.015  0.000  0.001  0.000  0.000  0.031
 29  0.007  0.006  0.000  0.001  0.015  0.000  0.001  0.000  0.000  0.031
 30  0.000  0.000  0.000  0.014  0.017  0.000  0.000  0.001  0.000  0.032
tot  0.305  0.045  0.018  0.045  0.159  0.029  0.030  0.041  0.025  0.696
 
band   6 # energy   -8.85736257 # occ.  1.00000000
 
ion      s     py     pz     px    dxy    dyz    dz2    dxz    dx2    tot
  1  0.005  0.000  0.000  0.000  0.000  0.001  0.000  0.000  0.001  0.007
  2  0.015  0.000  0.003  0.000  0.000  0.002  0.005  0.000  0.001  0.026
  3  0.014  0.000  0.003  0.000  0.000  0.001  0.003  0.004  0.001  0.027
  4  0.014  0.000  0.003  0.000  0.000  0.001  0.003  0.004  0.001  0.027
  5  0.002  0.002  0.000  0.000  0.000  0.004  0.001  0.000  0.005  0.014
  6  0.005  0.001  0.000  0.000  0.001  0.000  0.001  0.000  0.003  0.012
  7  0.005  0.001  0.000  0.000  0.001  0.000  0.001  0.000  0.003  0.012
  8  0.005  0.000  0.001  0.000  0.002  0.002  0.000  0.001  0.000  0.012
  9  0.005  0.000  0.001  0.000  0.002  0.002  0.000  0.001  0.000  0.012
 10  0.012  0.003  0.001  0.000  0.000  0.007  0.000  0.000  0.003  0.025
 11  0.027  0.001  0.002  0.001  0.000  0.000  0.001  0.002  0.001  0.034
 12  0.027  0.001  0.002  0.001  0.000  0.000  0.001  0.002  0.001  0.034
 13  0.004  0.001  0.000  0.001  0.003  0.000  0.001  0.000  0.000  0.011
 14  0.004  0.001  0.000  0.001  0.003  0.000  0.001  0.000  0.000  0.011
 15  0.001  0.000  0.002  0.002  0.002  0.000  0.005  0.000  0.003  0.014
 16  0.001  0.000  0.002  0.002  0.002  0.000  0.005  0.000  0.003  0.014
 17  0.001  0.000  0.001  0.004  0.001  0.000  0.010  0.001  0.004  0.023
 18  0.001  0.000  0.001  0.004  0.001  0.000  0.010  0.001  0.004  0.023
 19  0.034  0.001  0.000  0.000  0.002  0.000  0.000  0.000  0.008  0.045
 20  0.034  0.001  0.000  0.000  0.002  0.000  0.000  0.000  0.008  0.045
 21  0.007  0.000  0.001  0.000  0.008  0.000  0.000  0.001  0.000  0.017
 22  0.007  0.000  0.001  0.000  0.008  0.000  0.000  0.001  0.000  0.017
 23  0.041  0.001  0.002  0.000  0.000  0.000  0.002  0.000  0.004  0.049
 24  0.001  0.000  0.000  0.003  0.007  0.001  0.000  0.002  0.000  0.014
 25  0.001  0.000  0.000  0.003  0.007  0.001  0.000  0.002  0.000  0.014
 26  0.001  0.000  0.000  0.000  0.000  0.000  0.001  0.000  0.001  0.003
 27  0.017  0.001  0.001  0.000  0.000  0.001  0.026  0.000  0.012  0.058
 28  0.000  0.000  0.001  0.011  0.002  0.000  0.010  0.001  0.003  0.028
 29  0.000  0.000  0.001  0.011  0.002  0.000  0.010  0.001  0.003  0.028
 30  0.005  0.003  0.003  0.000  0.000  0.000  0.028  0.000  0.009  0.049
tot  0.294  0.020  0.035  0.048  0.055  0.024  0.126  0.023  0.082  0.708
 
band   7 # energy   -8.77902192 # occ.  1.00000000
 
ion      s     py     pz     px    dxy    dyz    dz2    dxz    dx2    tot
  1  0.033  0.005  0.000  0.000  0.000  0.001  0.002  0.000  0.001  0.042
  2  0.000  0.003  0.000  0.000  0.000  0.014  0.001  0.000  0.000  0.018
  3  0.007  0.001  0.000  0.001  0.003  0.001  0.000  0.000  0.001  0.013
  4  0.007  0.001  0.000  0.001  0.003  0.001  0.000  0.000  0.001  0.013
  5  0.003  0.002  0.000  0.000  0.000  0.006  0.003  0.000  0.002  0.016
  6  0.013  0.000  0.000  0.004  0.002  0.001  0.000  0.000  0.008  0.029
  7  0.013  0.000  0.000  0.004  0.002  0.001  0.000  0.000  0.008  0.029
  8  0.006  0.000  0.001  0.002  0.000  0.000  0.000  0.003  0.004  0.016
  9  0.006  0.000  0.001  0.002  0.000  0.000  0.000  0.003  0.004  0.016
 10  0.000  0.001  0.000  0.000  0.000  0.002  0.003  0.000  0.000  0.006
 11  0.001  0.001  0.000  0.000  0.005  0.000  0.001  0.001  0.000  0.009
 12  0.001  0.001  0.000  0.000  0.005  0.000  0.001  0.001  0.000  0.009
 13  0.001  0.001  0.001  0.000  0.000  0.001  0.007  0.001  0.002  0.015
 14  0.001  0.001  0.001  0.000  0.000  0.001  0.007  0.001  0.002  0.015
 15  0.005  0.000  0.000  0.000  0.000  0.001  0.000  0.000  0.004  0.012
 16  0.005  0.000  0.000  0.000  0.000  0.001  0.000  0.000  0.004  0.012
 17  0.007  0.001  0.000  0.000  0.001  0.002  0.000  0.002  0.000  0.013
 18  0.007  0.001  0.000  0.000  0.001  0.002  0.000  0.002  0.000  0.013
 19  0.006  0.002  0.000  0.000  0.002  0.000  0.001  0.000  0.001  0.012
 20  0.006  0.002  0.000  0.000  0.002  0.000  0.001  0.000  0.001  0.012
 21  0.008  0.001  0.002  0.002  0.000  0.000  0.002  0.005  0.005  0.025
 22  0.008  0.001  0.002  0.002  0.000  0.000  0.002  0.005  0.005  0.025
 23  0.011  0.000  0.001  0.000  0.000  0.000  0.000  0.000  0.003  0.015
 24  0.016  0.001  0.001  0.001  0.000  0.007  0.002  0.000  0.006  0.035
 25  0.016  0.001  0.001  0.001  0.000  0.007  0.002  0.000  0.006  0.035
 26  0.056  0.002  0.000  0.000  0.000  0.002  0.001  0.000  0.010  0.070
 27  0.008  0.000  0.000  0.000  0.000  0.019  0.017  0.000  0.030  0.075
 28  0.003  0.008  0.001  0.000  0.001  0.007  0.002  0.000  0.023  0.046
 29  0.003  0.008  0.001  0.000  0.001  0.007  0.002  0.000  0.023  0.046
 30  0.005  0.012  0.001  0.000  0.000  0.005  0.000  0.000  0.002  0.024
tot  0.267  0.058  0.018  0.022  0.027  0.087  0.055  0.024  0.157  0.716
 
band   8 # energy   -8.73750129 # occ.  1.00000000
 
ion      s     py     pz     px    dxy    dyz    dz2    dxz    dx2    tot
  1  0.003  0.000  0.002  0.000  0.000  0.006  0.000  0.000  0.000  0.011
  2  0.013  0.002  0.003  0.000  0.000  0.010  0.008  0.000  0.001  0.037
  3  0.000  0.001  0.000  0.000  0.002  0.000  0.001  0.000  0.001  0.006
  4  0.000  0.001  0.000  0.000  0.002  0.000  0.001  0.000  0.001  0.006
  5  0.025  0.000  0.006  0.000  0.000  0.001  0.011  0.000  0.000  0.044
  6  0.000  0.000  0.002  0.000  0.000  0.007  0.000  0.004  0.001  0.015
  7  0.000  0.000  0.002  0.000  0.000  0.007  0.000  0.004  0.001  0.015
  8  0.001  0.001  0.001  0.000  0.001  0.000  0.003  0.002  0.001  0.010
  9  0.001  0.001  0.001  0.000  0.001  0.000  0.003  0.002  0.001  0.010
 10  0.015  0.000  0.002  0.000  0.000  0.002  0.001  0.000  0.000  0.020
 11  0.007  0.000  0.000  0.001  0.001  0.000  0.001  0.000  0.001  0.011
 12  0.007  0.000  0.000  0.001  0.001  0.000  0.001  0.000  0.001  0.011
 13  0.024  0.001  0.002  0.001  0.001  0.002  0.000  0.001  0.001  0.031
 14  0.024  0.001  0.002  0.001  0.001  0.002  0.000  0.001  0.001  0.031
 15  0.000  0.003  0.000  0.000  0.009  0.002  0.000  0.001  0.001  0.016
 16  0.000  0.003  0.000  0.000  0.009  0.002  0.000  0.001  0.001  0.016
 17  0.008  0.001  0.000  0.001  0.003  0.000  0.000  0.000  0.001  0.013
 18  0.008  0.001  0.000  0.001  0.003  0.000  0.000  0.000  0.001  0.013
 19  0.001  0.000  0.000  0.000  0.000  0.001  0.000  0.002  0.000  0.006
 20  0.001  0.000  0.000  0.000  0.000  0.001  0.000  0.002  0.000  0.006
 21  0.022  0.000  0.001  0.003  0.000  0.008  0.000  0.001  0.002  0.038
 22  0.022  0.000  0.001  0.003  0.000  0.008  0.000  0.001  0.002  0.038
 23  0.001  0.006  0.000  0.000  0.000  0.009  0.001  0.000  0.000  0.017
 24  0.030  0.001  0.000  0.001  0.001  0.001  0.003  0.008  0.004  0.049
 25  0.030  0.001  0.000  0.001  0.001  0.001  0.003  0.008  0.004  0.049
 26  0.007  0.000  0.005  0.000  0.000  0.012  0.000  0.000  0.000  0.025
 27  0.001  0.013  0.000  0.000  0.000  0.067  0.000  0.000  0.002  0.083
 28  0.002  0.002  0.002  0.002  0.000  0.024  0.002  0.000  0.000  0.035
 29  0.002  0.002  0.002  0.002  0.000  0.024  0.002  0.000  0.000  0.035
 30  0.005  0.000  0.006  0.000  0.000  0.006  0.001  0.000  0.008  0.026
tot  0.259  0.042  0.042  0.017  0.036  0.204  0.043  0.039  0.038  0.721
 
band   9 # energy   -8.61192593 # occ.  1.00000000
 
ion      s     py     pz     px    dxy    dyz    dz2    dxz    dx2    tot
  1  0.000  0.000  0.000  0.000  0.000  0.000  0.000  0.002  0.000  0.002
  2  0.000  0.000  0.000  0.005  0.003  0.000  0.000  0.023  0.000  0.031
  3  0.008  0.001  0.000  0.002  0.002  0.000  0.007  0.000  0.001  0.021
  4  0.008  0.001  0.000  0.002  0.002  0.000  0.007  0.000  0.001  0.021
  5  0.000  0.000  0.000  0.004  0.013  0.000  0.000  0.010  0.000  0.027
  6  0.001  0.000  0.001  0.000  0.000  0.006  0.000  0.001  0.000  0.009
  7  0.001  0.000  0.001  0.000  0.000  0.006  0.000  0.001  0.000  0.009
  8  0.004  0.001  0.000  0.000  0.000  0.001  0.001  0.000  0.002  0.011
  9  0.004  0.001  0.000  0.000  0.000  0.001  0.001  0.000  0.002  0.011
 10  0.000  0.000  0.000  0.003  0.005  0.000  0.000  0.009  0.000  0.017
 11  0.016  0.000  0.000  0.002  0.000  0.001  0.002  0.001  0.001  0.024
 12  0.016  0.000  0.000  0.002  0.000  0.001  0.002  0.001  0.001  0.024
 13  0.003  0.001  0.000  0.000  0.001  0.001  0.000  0.000  0.001  0.007
 14  0.003  0.001  0.000  0.000  0.001  0.001  0.000  0.000  0.001  0.007
 15  0.040  0.001  0.001  0.002  0.000  0.001  0.001  0.000  0.000  0.046
 16  0.040  0.001  0.001  0.002  0.000  0.001  0.001  0.000  0.000  0.046
 17  0.033  0.000  0.002  0.000  0.001  0.001  0.000  0.000  0.001  0.039
 18  0.033  0.000  0.002  0.000  0.001  0.001  0.000  0.000  0.001  0.039
 19  0.000  0.000  0.005  0.000  0.000  0.005  0.000  0.008  0.000  0.019
 20  0.000  0.000  0.005  0.000  0.000  0.005  0.000  0.008  0.000  0.019
 21  0.004  0.001  0.000  0.000  0.000  0.004  0.000  0.000  0.003  0.013
 22  0.004  0.001  0.000  0.000  0.000  0.004  0.000  0.000  0.003  0.013
 23  0.000  0.000  0.000  0.005  0.004  0.000  0.000  0.009  0.000  0.018
 24  0.015  0.002  0.000  0.002  0.002  0.001  0.001  0.002  0.003  0.028
 25  0.015  0.002  0.000  0.002  0.002  0.001  0.001  0.002  0.003  0.028
 26  0.000  0.000  0.000  0.000  0.000  0.000  0.000  0.004  0.000  0.004
 27  0.000  0.000  0.000  0.012  0.000  0.000  0.000  0.057  0.000  0.070
 28  0.003  0.000  0.007  0.000  0.000  0.000  0.000  0.022  0.002  0.035
 29  0.003  0.000  0.007  0.000  0.000  0.000  0.000  0.022  0.002  0.035
 30  0.000  0.000  0.000  0.005  0.005  0.000  0.000  0.028  0.000  0.037
tot  0.253  0.013  0.037  0.051  0.045  0.043  0.027  0.213  0.027  0.709
 
band  10 # energy   -8.51274016 # occ.  1.00000000
 
ion      s     py     pz     px    dxy    dyz    dz2    dxz    dx2    tot
  1  0.001  0.001  0.001  0.000  0.000  0.004  0.001  0.000  0.003  0.010
  2  0.001  0.000  0.000  0.000  0.000  0.004  0.001  0.000  0.001  0.006
  3  0.000  0.000  0.001  0.000  0.001  0.000  0.000  0.007  0.002  0.012
  4  0.000  0.000  0.001  0.000  0.001  0.000  0.000  0.007  0.002  0.012
  5  0.003  0.000  0.000  0.000  0.000  0.003  0.001  0.000  0.003  0.010
  6  0.001  0.001  0.000  0.000  0.001  0.002  0.002  0.000  0.003  0.008
  7  0.001  0.001  0.000  0.000  0.001  0.002  0.002  0.000  0.003  0.008
  8  0.000  0.000  0.000  0.001  0.001  0.000  0.001  0.000  0.003  0.007
  9  0.000  0.000  0.000  0.001  0.001  0.000  0.001  0.000  0.003  0.007
 10  0.001  0.002  0.000  0.000  0.000  0.003  0.012  0.000  0.002  0.020
 11  0.001  0.000  0.000  0.000  0.001  0.000  0.001  0.003  0.000  0.007
 12  0.001  0.000  0.000  0.000  0.001  0.000  0.001  0.003  0.000  0.007
 13  0.008  0.001  0.000  0.002  0.004  0.001  0.004  0.001  0.000  0.021
 14  0.008  0.001  0.000  0.002  0.004  0.001  0.004  0.001  0.000  0.021
 15  0.006  0.000  0.000  0.000  0.000  0.000  0.000  0.000  0.001  0.008
 16  0.006  0.000  0.000  0.000  0.000  0.000  0.000  0.000  0.001  0.008
 17  0.006  0.000  0.000  0.000  0.001  0.000  0.002  0.006  0.000  0.017
 18  0.006  0.000  0.000  0.000  0.001  0.000  0.002  0.006  0.000  0.017
 19  0.003  0.000  0.000  0.000  0.000  0.000  0.003  0.001  0.001  0.008
 20  0.003  0.000  0.000  0.000  0.000  0.000  0.003  0.001  0.001  0.008
 21  0.003  0.000  0.001  0.000  0.000  0.001  0.001  0.002  0.000  0.009
 22  0.003  0.000  0.001  0.000  0.000  0.001  0.001  0.002  0.000  0.009
 23  0.027  0.000  0.000  0.000  0.000  0.006  0.022  0.000  0.001  0.056
 24  0.002  0.000  0.000  0.000  0.001  0.000  0.002  0.000  0.000  0.005
 25  0.002  0.000  0.000  0.000  0.001  0.000  0.002  0.000  0.000  0.005
 26  0.001  0.000  0.000  0.000  0.000  0.001  0.004  0.000  0.000  0.006
 27  0.004  0.001  0.008  0.000  0.000  0.007  0.109  0.000  0.001  0.129
 28  0.008  0.001  0.001  0.002  0.055  0.000  0.039  0.017  0.005  0.129
 29  0.008  0.001  0.001  0.002  0.055  0.000  0.039  0.017  0.005  0.129
 30  0.016  0.001  0.002  0.000  0.000  0.058  0.015  0.000  0.031  0.122
tot  0.130  0.011  0.018  0.009  0.134  0.097  0.274  0.072  0.073  0.817
 
band  11 # energy   -8.38743601 # occ.  1.00000000
 
ion      s     py     pz     px    dxy    dyz    dz2    dxz    dx2    tot
  1  0.000  0.000  0.000  0.000  0.000  0.001  0.000  0.000  0.000  0.001
  2  0.014  0.001  0.001  0.000  0.000  0.006  0.000  0.000  0.000  0.023
  3  0.000  0.001  0.000  0.000  0.010  0.002  0.002  0.000  0.001  0.018
  4  0.000  0.001  0.000  0.000  0.010  0.002  0.002  0.000  0.001  0.018
  5  0.003  0.001  0.001  0.000  0.000  0.000  0.018  0.000  0.002  0.025
  6  0.010  0.001  0.000  0.000  0.001  0.000  0.000  0.002  0.000  0.014
  7  0.010  0.001  0.000  0.000  0.001  0.000  0.000  0.002  0.000  0.014
  8  0.000  0.000  0.000  0.000  0.000  0.000  0.000  0.000  0.000  0.001
  9  0.000  0.000  0.000  0.000  0.000  0.000  0.000  0.000  0.000  0.001
 10  0.001  0.000  0.000  0.000  0.000  0.000  0.001  0.000  0.000  0.002
 11  0.004  0.000  0.000  0.000  0.000  0.002  0.000  0.000  0.001  0.008
 12  0.004  0.000  0.000  0.000  0.000  0.002  0.000  0.000  0.001  0.008
 13  0.010  0.000  0.001  0.000  0.001  0.000  0.001  0.001  0.003  0.016
 14  0.010  0.000  0.001  0.000  0.001  0.000  0.001  0.001  0.003  0.016
 15  0.006  0.000  0.000  0.000  0.000  0.000  0.000  0.003  0.001  0.011
 16  0.006  0.000  0.000  0.000  0.000  0.000  0.000  0.003  0.001  0.011
 17  0.002  0.000  0.001  0.000  0.000  0.005  0.001  0.000  0.002  0.011
 18  0.002  0.000  0.001  0.000  0.000  0.005  0.001  0.000  0.002  0.011
 19  0.000  0.000  0.001  0.000  0.001  0.004  0.000  0.001  0.000  0.006
 20  0.000  0.000  0.001  0.000  0.001  0.004  0.000  0.001  0.000  0.006
 21  0.000  0.000  0.000  0.000  0.003  0.000  0.001  0.001  0.001  0.006
 22  0.000  0.000  0.000  0.000  0.003  0.000  0.001  0.001  0.001  0.006
 23  0.001  0.000  0.000  0.000  0.000  0.001  0.000  0.000  0.007  0.010
 24  0.002  0.000  0.002  0.003  0.004  0.013  0.000  0.028  0.003  0.056
 25  0.002  0.000  0.002  0.003  0.004  0.013  0.000  0.028  0.003  0.056
 26  0.000  0.002  0.003  0.000  0.000  0.013  0.001  0.000  0.027  0.046
 27  0.002  0.002  0.004  0.000  0.000  0.028  0.060  0.000  0.064  0.160
 28  0.005  0.000  0.001  0.002  0.022  0.017  0.006  0.056  0.015  0.124
 29  0.005  0.000  0.001  0.002  0.022  0.017  0.006  0.056  0.015  0.124
 30  0.000  0.000  0.000  0.000  0.000  0.005  0.000  0.000  0.001  0.007
tot  0.102  0.014  0.020  0.013  0.084  0.141  0.106  0.182  0.156  0.817
 
band  12 # energy   -8.28797161 # occ.  1.00000000
 
ion      s     py     pz     px    dxy    dyz    dz2    dxz    dx2    tot
  1  0.004  0.001  0.001  0.000  0.000  0.006  0.000  0.000  0.003  0.015
  2  0.000  0.000  0.000  0.000  0.000  0.004  0.000  0.000  0.000  0.006
  3  0.001  0.000  0.001  0.000  0.001  0.001  0.004  0.002  0.001  0.011
  4  0.001  0.000  0.001  0.000  0.001  0.001  0.004  0.002  0.001  0.011
  5  0.001  0.000  0.000  0.000  0.000  0.001  0.004  0.000  0.001  0.008
  6  0.001  0.001  0.000  0.001  0.001  0.002  0.000  0.001  0.018  0.026
  7  0.001  0.001  0.000  0.001  0.001  0.002  0.000  0.001  0.018  0.026
  8  0.003  0.002  0.000  0.000  0.001  0.000  0.002  0.002  0.005  0.015
  9  0.003  0.002  0.000  0.000  0.001  0.000  0.002  0.002  0.005  0.015
 10  0.000  0.000  0.000  0.000  0.000  0.001  0.001  0.000  0.006  0.009
 11  0.007  0.001  0.000  0.001  0.003  0.001  0.000  0.002  0.002  0.018
 12  0.007  0.001  0.000  0.001  0.003  0.001  0.000  0.002  0.002  0.018
 13  0.002  0.000  0.001  0.000  0.000  0.000  0.004  0.003  0.001  0.012
 14  0.002  0.000  0.001  0.000  0.000  0.000  0.004  0.003  0.001  0.012
 15  0.000  0.000  0.000  0.000  0.002  0.000  0.001  0.000  0.002  0.005
 16  0.000  0.000  0.000  0.000  0.002  0.000  0.001  0.000  0.002  0.005
 17  0.002  0.001  0.001  0.001  0.005  0.003  0.009  0.000  0.006  0.027
 18  0.002  0.001  0.001  0.001  0.005  0.003  0.009  0.000  0.006  0.027
 19  0.006  0.000  0.001  0.001  0.000  0.000  0.000  0.002  0.004  0.015
 20  0.006  0.000  0.001  0.001  0.000  0.000  0.000  0.002  0.004  0.015
 21  0.003  0.000  0.000  0.002  0.001  0.005  0.000  0.004  0.009  0.024
 22  0.003  0.000  0.000  0.002  0.001  0.005  0.000  0.004  0.009  0.024
 23  0.012  0.001  0.002  0.000  0.000  0.006  0.004  0.000  0.000  0.025
 24  0.001  0.000  0.000  0.001  0.000  0.002  0.000  0.013  0.005  0.022
 25  0.001  0.000  0.000  0.001  0.000  0.002  0.000  0.013  0.005  0.022
 26  0.017  0.001  0.001  0.000  0.000  0.001  0.000  0.000  0.000  0.021
 27  0.002  0.000  0.000  0.000  0.000  0.002  0.007  0.000  0.018  0.029
 28  0.000  0.000  0.000  0.000  0.041  0.013  0.005  0.023  0.033  0.116
 29  0.000  0.000  0.000  0.000  0.041  0.013  0.005  0.023  0.033  0.116
 30  0.000  0.000  0.000  0.000  0.000  0.071  0.003  0.000  0.070  0.144
tot  0.088  0.015  0.013  0.015  0.109  0.152  0.072  0.104  0.269  0.839
 
band  13 # energy   -8.25703966 # occ.  1.00000000
 
ion      s     py     pz     px    dxy    dyz    dz2    dxz    dx2    tot
  1  0.000  0.000  0.000  0.000  0.000  0.000  0.000  0.002  0.000  0.003
  2  0.000  0.000  0.000  0.002  0.001  0.000  0.000  0.023  0.000  0.026
  3  0.000  0.001  0.000  0.000  0.006  0.000  0.000  0.002  0.000  0.009
  4  0.000  0.001  0.000  0.000  0.006  0.000  0.000  0.002  0.000  0.009
  5  0.000  0.000  0.000  0.000  0.004  0.000  0.000  0.001  0.000  0.005
  6  0.002  0.000  0.001  0.000  0.001  0.004  0.000  0.005  0.000  0.012
  7  0.002  0.000  0.001  0.000  0.001  0.004  0.000  0.005  0.000  0.012
  8  0.001  0.000  0.001  0.000  0.001  0.006  0.003  0.002  0.000  0.015