<?xml version="1.0" encoding="ISO-8859-1"?>
<modeling>
 <generator>
  <i name="program" type="string">vasp </i>
  <i name="version" type="string">5.4.1  </i>
  <i name="subversion" type="string">05Feb16 (build Nov 14 2017 18:17:46) gamma-only                       parallel </i>
  <i name="platform" type="string">IFC91_ompi </i>
  <i name="date" type="string">2020 08 09 </i>
  <i name="time" type="string">05:07:52 </i>
 </generator>
 <incar>
  <i type="string" name="PREC">normal</i>
  <i type="int" name="IALGO">    48</i>
  <i type="int" name="ISPIN">     2</i>
  <i type="int" name="IBRION">     2</i>
  <i type="int" name="NSW">  1000</i>
  <i type="int" name="ISIF">     2</i>
  <i name="SYMPREC">      0.00000100</i>
  <i name="POTIM">      0.50000000</i>
  <v name="MAGMOM">      3.00000000      3.00000000      3.00000000      3.00000000      3.00000000      3.00000000      3.00000000      3.00000000      3.00000000      3.00000000      3.00000000      3.00000000      3.00000000      3.00000000      3.00000000      3.00000000      3.00000000      3.00000000      3.00000000      3.00000000
      3.00000000      3.00000000      3.00000000      3.00000000      3.00000000      3.00000000      3.00000000      3.00000000      3.00000000      3.00000000</v>
  <i type="int" name="ISMEAR">     0</i>
  <i name="SIGMA">      0.00010000</i>
  <i type="logical" name="LWAVE"> F  </i>
  <i type="logical" name="LCHARG"> F  </i>
  <i type="logical" name="LVTOT"> F  </i>
  <i type="logical" name="LORBIT"> F  </i>
  <v type="int" name="KPOINT_BSE">    -1     0     0     0</v>
  <i type="string" name="GGA"> PE</i>
 </incar>
 <kpoints>
  <varray name="kpointlist" >
   <v>       0.00000000       0.00000000       0.00000000 </v>
  </varray>
  <varray name="weights" >
   <v>       1.00000000 </v>
  </varray>
 </kpoints>
 <parameters>
  <separator name="general" >
   <i type="string" name="SYSTEM">unknown system</i>
   <i type="logical" name="LCOMPAT"> F  </i>
  </separator>
  <separator name="electronic" >
   <i type="string" name="PREC">normal</i>
   <i name="ENMAX">    295.44600000</i>
   <i name="ENAUG">    586.98000000</i>
   <i name="EDIFF">      0.00010000</i>
   <i type="int" name="IALGO">    48</i>
   <i type="int" name="IWAVPR">    11</i>
   <i type="int" name="NBANDS">   244</i>
   <i name="NELECT">    330.00000000</i>
   <i type="int" name="TURBO">     0</i>
   <i type="int" name="IRESTART">     0</i>
   <i type="int" name="NREBOOT">     0</i>
   <i type="int" name="NMIN">     0</i>
   <i name="EREF">      0.00000000</i>
   <separator name="electronic smearing" >
    <i type="int" name="ISMEAR">     0</i>
    <i name="SIGMA">      0.00010000</i>
    <i name="KSPACING">      0.50000000</i>
    <i type="logical" name="KGAMMA"> T  </i>
   </separator>
   <separator name="electronic projectors" >
    <i type="logical" name="LREAL"> F  </i>
    <v name="ROPT">      0.00000000</v>
    <i type="int" name="LMAXPAW">  -100</i>
    <i type="int" name="LMAXMIX">     2</i>
    <i type="logical" name="NLSPLINE"> F  </i>
   </separator>
   <separator name="electronic startup" >
    <i type="int" name="ISTART">     0</i>
    <i type="int" name="ICHARG">     2</i>
    <i type="int" name="INIWAV">     1</i>
   </separator>
   <separator name="electronic spin" >
    <i type="int" name="ISPIN">     2</i>
    <i type="logical" name="LNONCOLLINEAR"> F  </i>
    <v name="MAGMOM">      3.00000000      3.00000000      3.00000000      3.00000000      3.00000000      3.00000000      3.00000000      3.00000000      3.00000000      3.00000000      3.00000000      3.00000000      3.00000000      3.00000000      3.00000000      3.00000000      3.00000000      3.00000000      3.00000000      3.00000000
      3.00000000      3.00000000      3.00000000      3.00000000      3.00000000      3.00000000      3.00000000      3.00000000      3.00000000      3.00000000</v>
    <i name="NUPDOWN">     -1.00000000</i>
    <i type="logical" name="LSORBIT"> F  </i>
    <v name="SAXIS">      0.00000000      0.00000000      1.00000000</v>
    <i type="logical" name="LSPIRAL"> F  </i>
    <v name="QSPIRAL">      0.00000000      0.00000000      0.00000000</v>
    <i type="logical" name="LZEROZ"> F  </i>
   </separator>
   <separator name="electronic exchange-correlation" >
    <i type="logical" name="LASPH"> F  </i>
    <i type="logical" name="LMETAGGA"> F  </i>
   </separator>
   <separator name="electronic convergence" >
    <i type="int" name="NELM">    60</i>
    <i type="int" name="NELMDL">   -12</i>
    <i type="int" name="NELMIN">     2</i>
    <i name="ENINI">    295.44600000</i>
    <separator name="electronic convergence detail" >
     <i type="logical" name="LDIAG"> T  </i>
     <i type="logical" name="LSUBROT"> F  </i>
     <i name="WEIMIN">      0.00100000</i>
     <i name="EBREAK">      0.00000010</i>
     <i name="DEPER">      0.30000000</i>
     <i type="int" name="NRMM">     4</i>
     <i name="TIME">      0.40000000</i>
    </separator>
   </separator>
   <separator name="electronic mixer" >
    <i name="AMIX">      0.40000000</i>
    <i name="BMIX">      1.00000000</i>
    <i name="AMIN">      0.10000000</i>
    <i name="AMIX_MAG">      1.60000000</i>
    <i name="BMIX_MAG">      1.00000000</i>
    <separator name="electronic mixer details" >
     <i type="int" name="IMIX">     4</i>
     <i type="logical" name="MIXFIRST"> F  </i>
     <i type="int" name="MAXMIX">   -45</i>
     <i name="WC">    100.00000000</i>
     <i type="int" name="INIMIX">     1</i>
     <i type="int" name="MIXPRE">     1</i>
     <i type="int" name="MREMOVE">     5</i>
    </separator>
   </separator>
   <separator name="electronic dipolcorrection" >
    <i type="logical" name="LDIPOL"> F  </i>
    <i type="logical" name="LMONO"> F  </i>
    <i type="int" name="IDIPOL">     0</i>
    <i name="EPSILON">      1.00000000</i>
    <v name="DIPOL">   -100.00000000   -100.00000000   -100.00000000</v>
    <i name="EFIELD">      0.00000000</i>
   </separator>
  </separator>
  <separator name="grids" >
   <i type="int" name="NGX">   120</i>
   <i type="int" name="NGY">   120</i>
   <i type="int" name="NGZ">   120</i>
   <i type="int" name="NGXF">   240</i>
   <i type="int" name="NGYF">   240</i>
   <i type="int" name="NGZF">   240</i>
   <i type="logical" name="ADDGRID"> F  </i>
  </separator>
  <separator name="ionic" >
   <i type="int" name="NSW">  1000</i>
   <i type="int" name="IBRION">     2</i>
   <i type="int" name="ISIF">     2</i>
   <i name="PSTRESS">      0.00000000</i>
   <i name="EDIFFG">      0.00100000</i>
   <i type="int" name="NFREE">     1</i>
   <i name="POTIM">      0.50000000</i>
   <i name="SMASS">     -3.00000000</i>
   <i name="SCALEE">      1.00000000</i>
  </separator>
  <separator name="ionic md" >
   <i name="TEBEG">      0.00010000</i>
   <i name="TEEND">      0.00010000</i>
   <i type="int" name="NBLOCK">     1</i>
   <i type="int" name="KBLOCK">  1000</i>
   <i type="int" name="NPACO">   256</i>
   <i name="APACO">     16.00000000</i>
  </separator>
  <separator name="symmetry" >
   <i type="int" name="ISYM">     2</i>
   <i name="SYMPREC">      0.00000100</i>
  </separator>
  <separator name="dos" >
   <i type="logical" name="LORBIT"> F  </i>
   <v name="RWIGS">     -1.00000000</v>
   <i type="int" name="NEDOS">   301</i>
   <i name="EMIN">     10.00000000</i>
   <i name="EMAX">    -10.00000000</i>
   <i name="EFERMI">      0.00000000</i>
  </separator>
  <separator name="writing" >
   <i type="int" name="NWRITE">     2</i>
   <i type="logical" name="LWAVE"> F  </i>
   <i type="logical" name="LCHARG"> F  </i>
   <i type="logical" name="LPARD"> F  </i>
   <i type="logical" name="LVTOT"> F  </i>
   <i type="logical" name="LVHAR"> F  </i>
   <i type="logical" name="LELF"> F  </i>
   <i type="logical" name="LOPTICS"> F  </i>
   <v name="STM">      0.00000000      0.00000000      0.00000000      0.00000000      0.00000000      0.00000000      0.00000000</v>
  </separator>
  <separator name="performance" >
   <i type="int" name="NPAR">     4</i>
   <i type="int" name="NSIM">     4</i>
   <i type="int" name="NBLK">    -1</i>
   <i type="logical" name="LPLANE"> T  </i>
   <i type="logical" name="LSCALAPACK"> T  </i>
   <i type="logical" name="LSCAAWARE"> F  </i>
   <i type="logical" name="LSCALU"> F  </i>
   <i type="logical" name="LASYNC"> F  </i>
   <i type="logical" name="LORBITALREAL"> F  </i>
  </separator>
  <separator name="miscellaneous" >
   <i type="int" name="IDIOT">     3</i>
   <i type="logical" name="LMUSIC"> F  </i>
   <v name="POMASS">     63.54600000</v>
   <v name="DARWINR">      0.00000000</v>
   <v name="DARWINV">      1.00000000</v>
   <i type="logical" name="LCORR"> T  </i>
  </separator>
  <i type="logical" name="GGA_COMPAT"> T  </i>
  <i type="logical" name="LBERRY"> F  </i>
  <i type="int" name="ICORELEVEL">     0</i>
  <i type="logical" name="LDAU"> F  </i>
  <i type="int" name="I_CONSTRAINED_M">     0</i>
  <separator name="electronic exchange-correlation" >
   <i type="string" name="GGA">PE</i>
   <i type="int" name="VOSKOWN">     0</i>
   <i type="logical" name="LHFCALC"> F  </i>
   <i type="string" name="PRECFOCK"></i>
   <i type="logical" name="LSYMGRAD"> F  </i>
   <i type="logical" name="LHFONE"> F  </i>
   <i type="logical" name="LRHFCALC"> F  </i>
   <i type="logical" name="LTHOMAS"> F  </i>
   <i type="logical" name="LMODELHF"> F  </i>
   <i name="ENCUT4O">     -1.00000000</i>
   <i type="int" name="EXXOEP">     0</i>
   <i type="int" name="FOURORBIT">     0</i>
   <i name="AEXX">      0.00000000</i>
   <i name="HFALPHA">      0.00000000</i>
   <i name="MCALPHA">      0.00000000</i>
   <i name="ALDAX">      1.00000000</i>
   <i name="AGGAX">      1.00000000</i>
   <i name="ALDAC">      1.00000000</i>
   <i name="AGGAC">      1.00000000</i>
   <i type="int" name="NKREDX">     1</i>
   <i type="int" name="NKREDY">     1</i>
   <i type="int" name="NKREDZ">     1</i>
   <i type="logical" name="SHIFTRED"> F  </i>
   <i type="logical" name="ODDONLY"> F  </i>
   <i type="logical" name="EVENONLY"> F  </i>
   <i type="int" name="LMAXFOCK">     0</i>
   <i type="int" name="NMAXFOCKAE">     0</i>
   <i type="logical" name="LFOCKAEDFT"> F  </i>
   <i name="HFSCREEN">      0.00000000</i>
   <i name="HFSCREENC">      0.00000000</i>
   <i type="int" name="NBANDSGWLOW">     0</i>
  </separator>
  <separator name="vdW DFT" >
   <i type="logical" name="LUSE_VDW"> F  </i>
   <i name="Zab_VDW">     -0.84910000</i>
   <i name="PARAM1">      0.12340000</i>
   <i name="PARAM2">      1.00000000</i>
   <i name="PARAM3">      0.00000000</i>
  </separator>
  <separator name="model GW" >
   <i type="int" name="MODEL_GW">     0</i>
   <i name="MODEL_EPS0">    388.70214968</i>
   <i name="MODEL_ALPHA">      1.00000000</i>
  </separator>
  <separator name="linear response parameters" >
   <i type="logical" name="LEPSILON"> F  </i>
   <i type="logical" name="LRPA"> F  </i>
   <i type="logical" name="LNABLA"> F  </i>
   <i type="logical" name="LVEL"> F  </i>
   <i type="int" name="KINTER">     0</i>
   <i name="CSHIFT">      0.10000000</i>
   <i name="OMEGAMAX">     -1.00000000</i>
   <i name="DEG_THRESHOLD">      0.00200000</i>
  </separator>
  <separator name="orbital magnetization" >
   <i type="logical" name="NUCIND"> F  </i>
   <v name="MAGPOS">      0.00000000      0.00000000      0.00000000</v>
   <i type="logical" name="LNICSALL"> T  </i>
   <i type="logical" name="ORBITALMAG"> F  </i>
   <i type="logical" name="LMAGBLOCH"> F  </i>
   <i type="logical" name="LCHIMAG"> F  </i>
   <i type="logical" name="LGAUGE"> T  </i>
   <i type="int" name="MAGATOM">     0</i>
   <v name="MAGDIPOL">      0.00000000      0.00000000      0.00000000</v>
   <v name="AVECCONST">      0.00000000      0.00000000      0.00000000</v>
  </separator>
  <separator name="response functions" >
   <i type="logical" name="LADDER"> F  </i>
   <i type="logical" name="LFXC"> F  </i>
   <i type="logical" name="LHARTREE"> T  </i>
   <i type="int" name="IBSE">     0</i>
   <v type="int" name="KPOINT">    -1     0     0     0</v>
   <i type="logical" name="LTCTE"> F  </i>
   <i type="logical" name="LTETE"> F  </i>
   <i type="logical" name="LTRIPLET"> F  </i>
   <i type="logical" name="LFXCEPS"> F  </i>
   <i type="logical" name="LFXHEG"> F  </i>
   <i type="int" name="NATURALO">     0</i>
   <i type="logical" name="L2ORDER"> F  </i>
   <i type="logical" name="LUSEW"> F  </i>
   <i name="ENCUTGW">     -2.00000000</i>
   <i name="ENCUTGWSOFT">     -2.00000000</i>
   <i name="ENCUTLF">     -1.00000000</i>
   <i type="int" name="LMAXMP2">    -1</i>
   <i name="SCISSOR">      0.00000000</i>
   <i type="int" name="NOMEGA">     0</i>
   <i type="int" name="NOMEGAR">     0</i>
   <i type="int" name="NBANDSGW">    -1</i>
   <i type="int" name="NBANDSO">    -1</i>
   <i type="int" name="NBANDSV">    -1</i>
   <i type="int" name="NELM">     1</i>
   <i type="int" name="NELMHF">     1</i>
   <i type="int" name="DIM">     3</i>
   <i type="int" name="ANTIRES">     0</i>
   <i name="OMEGAMAX">    -30.00000000</i>
   <i name="OMEGAMIN">    -30.00000000</i>
   <i name="OMEGATL">   -200.00000000</i>
   <i type="int" name="OMEGAGRID">     0</i>
   <i name="CSHIFT">     -0.10000000</i>
   <i type="logical" name="SELFENERGY"> F  </i>
   <i type="logical" name="LSPECTRAL"> F  </i>
   <i type="logical" name="LSPECTRALGW"> F  </i>
   <i type="logical" name="LSINGLES"> F  </i>
   <i type="logical" name="LFERMIGW"> F  </i>
   <i type="logical" name="ODDONLYGW"> F  </i>
   <i type="logical" name="EVENONLYGW"> F  </i>
   <i type="int" name="NKREDLFX">     1</i>
   <i type="int" name="NKREDLFY">     1</i>
   <i type="int" name="NKREDLFZ">     1</i>
   <i type="int" name="MAXMEM">  1800</i>
   <i type="int" name="TELESCOPE">     0</i>
   <i type="int" name="TAUPAR">     1</i>
   <i type="int" name="OMEGAPAR">    -1</i>
   <i name="LAMBDA">      1.00000000</i>
  </separator>
  <separator name="External order field" >
   <i name="OFIELD_KAPPA">      0.00000000</i>
   <v name="OFIELD_K">      0.00000000      0.00000000      0.00000000</v>
   <i name="OFIELD_Q6_NEAR">      0.00000000</i>
   <i name="OFIELD_Q6_FAR">      0.00000000</i>
   <i name="OFIELD_A">      0.00000000</i>
  </separator>
  <separator name="solvation model" >
   <i type="logical" name="LSOL"> F  </i>
  </separator>
 </parameters>
 <atominfo>
  <atoms>      30 </atoms>
  <types>       1 </types>
  <array name="atoms" >
   <dimension dim="1">ion</dimension>
   <field type="string">element</field>
   <field type="int">atomtype</field>
   <set>
    <rc><c>Cu</c><c>   1</c></rc>
    <rc><c>Cu</c><c>   1</c></rc>
    <rc><c>Cu</c><c>   1</c></rc>
    <rc><c>Cu</c><c>   1</c></rc>
    <rc><c>Cu</c><c>   1</c></rc>
    <rc><c>Cu</c><c>   1</c></rc>
    <rc><c>Cu</c><c>   1</c></rc>
    <rc><c>Cu</c><c>   1</c></rc>
    <rc><c>Cu</c><c>   1</c></rc>
    <rc><c>Cu</c><c>   1</c></rc>
    <rc><c>Cu</c><c>   1</c></rc>
    <rc><c>Cu</c><c>   1</c></rc>
    <rc><c>Cu</c><c>   1</c></rc>
    <rc><c>Cu</c><c>   1</c></rc>
    <rc><c>Cu</c><c>   1</c></rc>
    <rc><c>Cu</c><c>   1</c></rc>
    <rc><c>Cu</c><c>   1</c></rc>
    <rc><c>Cu</c><c>   1</c></rc>
    <rc><c>Cu</c><c>   1</c></rc>
    <rc><c>Cu</c><c>   1</c></rc>
    <rc><c>Cu</c><c>   1</c></rc>
    <rc><c>Cu</c><c>   1</c></rc>
    <rc><c>Cu</c><c>   1</c></rc>
    <rc><c>Cu</c><c>   1</c></rc>
    <rc><c>Cu</c><c>   1</c></rc>
    <rc><c>Cu</c><c>   1</c></rc>
    <rc><c>Cu</c><c>   1</c></rc>
    <rc><c>Cu</c><c>   1</c></rc>
    <rc><c>Cu</c><c>   1</c></rc>
    <rc><c>Cu</c><c>   1</c></rc>
   </set>
  </array>
  <array name="atomtypes" >
   <dimension dim="1">type</dimension>
   <field type="int">atomspertype</field>
   <field type="string">element</field>
   <field>mass</field>
   <field>valence</field>
   <field type="string">pseudopotential</field>
   <set>
    <rc><c>  30</c><c>Cu</c><c>     63.54600000</c><c>     11.00000000</c><c>  PAW_PBE Cu 22Jun2005                  </c></rc>
   </set>
  </array>
 </atominfo>
 <structure name="initialpos" >
  <crystal>
   <varray name="basis" >
    <v>      26.88617260       0.00000000       0.00000000 </v>
    <v>       0.00000000      26.88617260       0.00000000 </v>
    <v>       0.00000000       0.00000000      26.88617260 </v>
   </varray>
   <i name="volume">  19435.10748387 </i>
   <varray name="rec_basis" >
    <v>       0.03719384       0.00000000       0.00000000 </v>
    <v>       0.00000000       0.03719384       0.00000000 </v>
    <v>       0.00000000       0.00000000       0.03719384 </v>
   </varray>
  </crystal>
  <varray name="positions" >
   <v>       0.50000000       0.35398398       0.48326133 </v>
   <v>       0.50000000       0.52040377       0.63411157 </v>
   <v>       0.37435789       0.54184019       0.44949545 </v>
   <v>       0.62564211       0.54184019       0.44949545 </v>
   <v>       0.50000000       0.42991953       0.61711813 </v>
   <v>       0.40909445       0.61152387       0.50022068 </v>
   <v>       0.59090555       0.61152387       0.50022068 </v>
   <v>       0.42458291       0.39214900       0.45436215 </v>
   <v>       0.57541709       0.39214900       0.45436215 </v>
   <v>       0.50000000       0.42131355       0.38924624 </v>
   <v>       0.62786919       0.54033593       0.54248479 </v>
   <v>       0.37213081       0.54033593       0.54248479 </v>
   <v>       0.45339126       0.59462010       0.42088447 </v>
   <v>       0.54660874       0.59462010       0.42088447 </v>
   <v>       0.42010456       0.47846819       0.59071235 </v>
   <v>       0.57989544       0.47846819       0.59071235 </v>
   <v>       0.42417013       0.47327384       0.41726838 </v>
   <v>       0.57582987       0.47327384       0.41726838 </v>
   <v>       0.60898544       0.46244182       0.50230320 </v>
   <v>       0.39101456       0.46244182       0.50230320 </v>
   <v>       0.45188602       0.40625578       0.54198584 </v>
   <v>       0.54811398       0.40625578       0.54198584 </v>
   <v>       0.50000000       0.51812819       0.40256717 </v>
   <v>       0.45374050       0.56960513       0.57061549 </v>
   <v>       0.54625950       0.56960513       0.57061549 </v>
   <v>       0.50000000       0.61550221       0.49908298 </v>
   <v>       0.50000000       0.48868115       0.55138054 </v>
   <v>       0.45363367       0.53183773       0.48571079 </v>
   <v>       0.54636633       0.53183773       0.48571079 </v>
   <v>       0.50000000       0.44736444       0.47114486 </v>
  </varray>
 </structure>
 <calculation>
  <scstep>
   <time name="diag">    2.11    2.11</time>
   <time name="diis">    6.86    6.86</time>
   <time name="orth">    0.18    0.18</time>
   <time name="total">   10.18   10.59</time>
   <energy>
    <i name="alphaZ">     33.86630271 </i>
    <i name="ewald"> 110566.07332656 </i>
    <i name="hartreedc">-148526.53849099 </i>
    <i name="XCdc">   1383.91751990 </i>
    <i name="pawpsdc">  36816.51539408 </i>
    <i name="pawaedc"> -39986.87630570 </i>
    <i name="eentropy">     -0.00000000 </i>
    <i name="bandstr">   1020.91042134 </i>
    <i name="atom">  41728.06753974 </i>
    <i name="e_fr_energy">   3035.93570763 </i>
    <i name="e_wo_entrp">   3035.93570763 </i>
    <i name="e_0_energy">   3035.93570763 </i>
   </energy>
  </scstep>
  <scstep>
   <time name="diag">    2.11    2.11</time>
   <time name="diis">    7.10    7.10</time>
   <time name="orth">    0.17    0.18</time>
   <time name="total">    9.39    9.39</time>
   <energy>
    <i name="e_fr_energy">   2054.40328024 </i>
    <i name="e_wo_entrp">   2054.40328024 </i>
    <i name="e_0_energy">   2054.40328024 </i>
   </energy>
  </scstep>
  <scstep>
   <time name="diag">    2.11    2.11</time>
   <time name="diis">    7.02    7.02</time>
   <time name="orth">    0.18    0.18</time>
   <time name="total">    9.30    9.32</time>
   <energy>
    <i name="e_fr_energy">   1313.67719027 </i>
    <i name="e_wo_entrp">   1313.67719027 </i>
    <i name="e_0_energy">   1313.67719027 </i>
   </energy>
  </scstep>
  <scstep>
   <time name="diag">    2.10    2.11</time>
   <time name="diis">    7.21    7.21</time>
   <time name="orth">    0.18    0.18</time>
   <time name="total">    9.50    9.54</time>
   <energy>
    <i name="e_fr_energy">    603.36223218 </i>
    <i name="e_wo_entrp">    603.36223218 </i>
    <i name="e_0_energy">    603.36223218 </i>
   </energy>
  </scstep>
  <scstep>
   <time name="diag">    2.10    2.11</time>
   <time name="diis">    7.24    7.24</time>
   <time name="orth">    0.18    0.18</time>
   <time name="total">    9.53    9.60</time>
   <energy>
    <i name="e_fr_energy">    244.90915074 </i>
    <i name="e_wo_entrp">    244.90915074 </i>
    <i name="e_0_energy">    244.90915074 </i>
   </energy>
  </scstep>
  <scstep>
   <time name="diag">    2.11    2.11</time>
   <time name="diis">    7.42    7.42</time>
   <time name="orth">    0.18    0.18</time>
   <time name="total">    9.70    9.73</time>
   <energy>
    <i name="e_fr_energy">     64.63031255 </i>
    <i name="e_wo_entrp">     64.63031255 </i>
    <i name="e_0_energy">     64.63031255 </i>
   </energy>
  </scstep>
  <scstep>
   <time name="diag">    2.10    2.11</time>
   <time name="diis">    7.02    7.02</time>
   <time name="orth">    0.18    0.18</time>
   <time name="total">    9.30    9.31</time>
   <energy>
    <i name="e_fr_energy">      0.85757814 </i>
    <i name="e_wo_entrp">      0.85757814 </i>
    <i name="e_0_energy">      0.85757814 </i>
   </energy>
  </scstep>
  <scstep>
   <time name="diag">    2.11    2.11</time>
   <time name="diis">    7.08    7.09</time>
   <time name="orth">    0.18    0.18</time>
   <time name="total">    9.37   11.97</time>
   <energy>
    <i name="e_fr_energy">    -25.51342872 </i>
    <i name="e_wo_entrp">    -25.51342872 </i>
    <i name="e_0_energy">    -25.51342872 </i>
   </energy>
  </scstep>
  <scstep>
   <time name="diag">    2.11    2.11</time>
   <time name="diis">   15.20   15.21</time>
   <time name="orth">    0.18    0.18</time>
   <time name="total">   17.49   17.51</time>
   <energy>
    <i name="e_fr_energy">    -52.95197132 </i>
    <i name="e_wo_entrp">    -52.95197132 </i>
    <i name="e_0_energy">    -52.95197132 </i>
   </energy>
  </scstep>
  <scstep>
   <time name="diag">    2.11    2.11</time>
   <time name="diis">   15.02   15.03</time>
   <time name="orth">    0.18    0.18</time>
   <time name="total">   17.31   17.36</time>
   <energy>
    <i name="e_fr_energy">    -57.68336079 </i>
    <i name="e_wo_entrp">    -57.68336079 </i>
    <i name="e_0_energy">    -57.68336079 </i>
   </energy>
  </scstep>
  <scstep>
   <time name="diag">    2.11    2.11</time>
   <time name="diis">   14.72   14.73</time>
   <time name="orth">    0.18    0.18</time>
   <time name="total">   17.01   17.06</time>
   <energy>
    <i name="e_fr_energy">    -60.24337277 </i>
    <i name="e_wo_entrp">    -60.24337277 </i>
    <i name="e_0_energy">    -60.24337277 </i>
   </energy>
  </scstep>
  <scstep>
   <time name="diag">    2.11    2.11</time>
   <time name="diis">   13.95   13.96</time>
   <time name="orth">    0.18    0.18</time>
   <time name="total">   17.47   17.49</time>
   <energy>
    <i name="e_fr_energy">    -60.72243339 </i>
    <i name="e_wo_entrp">    -60.72243339 </i>
    <i name="e_0_energy">    -60.72243339 </i>
   </energy>
  </scstep>
  <scstep>
   <time name="diag">    2.11    2.11</time>
   <time name="diis">   13.00   13.00</time>
   <time name="orth">    0.18    0.18</time>
   <time name="total">   17.55   17.59</time>
   <energy>
    <i name="e_fr_energy">    109.82849049 </i>
    <i name="e_wo_entrp">    109.82849049 </i>
    <i name="e_0_energy">    109.82849049 </i>
   </energy>
  </scstep>
  <scstep>
   <time name="diag">    2.11    2.11</time>
   <time name="diis">   13.18   13.18</time>
   <time name="orth">    0.18    0.18</time>
   <time name="total">   17.73   17.74</time>
   <energy>
    <i name="e_fr_energy">    146.18047028 </i>
    <i name="e_wo_entrp">    146.18047028 </i>
    <i name="e_0_energy">    146.18047028 </i>
   </energy>
  </scstep>
  <scstep>
   <time name="diag">    2.11    2.11</time>
   <time name="diis">   14.31   14.32</time>
   <time name="orth">    0.18    0.18</time>
   <time name="total">   18.85   18.91</time>
   <energy>
    <i name="e_fr_energy">    155.06216563 </i>
    <i name="e_wo_entrp">    155.06216563 </i>
    <i name="e_0_energy">    155.06216563 </i>
   </energy>
  </scstep>
  <scstep>
   <time name="diag">    2.11    2.11</time>
   <time name="diis">   14.22   14.23</time>
   <time name="orth">    0.18    0.18</time>
   <time name="total">   18.77   19.98</time>
   <energy>
    <i name="e_fr_energy">    109.49104656 </i>
    <i name="e_wo_entrp">    109.49104656 </i>
    <i name="e_0_energy">    109.49104656 </i>
   </energy>
  </scstep>
  <scstep>
   <time name="diag">    2.12    2.12</time>
   <time name="diis">   13.72   13.73</time>
   <time name="orth">    0.18    0.18</time>
   <time name="total">   18.28   18.30</time>
   <energy>
    <i name="e_fr_energy">     79.53597855 </i>
    <i name="e_wo_entrp">     79.53597855 </i>
    <i name="e_0_energy">     79.53597855 </i>
   </energy>
  </scstep>
  <scstep>
   <time name="diag">    2.12    2.12</time>
   <time name="diis">   13.04   13.05</time>
   <time name="orth">    0.18    0.18</time>
   <time name="total">   17.59   21.46</time>
   <energy>
    <i name="e_fr_energy">     59.53141140 </i>
    <i name="e_wo_entrp">     59.53141140 </i>
    <i name="e_0_energy">     59.53141140 </i>
   </energy>
  </scstep>
  <scstep>
   <time name="diag">    2.12    2.12</time>
   <time name="diis">   13.42   13.43</time>
   <time name="orth">    0.18    0.18</time>
   <time name="total">   17.98   18.01</time>
   <energy>
    <i name="e_fr_energy">     18.73421453 </i>
    <i name="e_wo_entrp">     18.73421453 </i>
    <i name="e_0_energy">     18.73421453 </i>
   </energy>
  </scstep>
  <scstep>
   <time name="diag">    2.12    2.12</time>
   <time name="diis">   13.07   13.08</time>
   <time name="orth">    0.18    0.18</time>
   <time name="total">   17.64   17.65</time>
   <energy>
    <i name="e_fr_energy">    -25.83075129 </i>
    <i name="e_wo_entrp">    -25.83075129 </i>
    <i name="e_0_energy">    -25.83075129 </i>
   </energy>
  </scstep>
  <scstep>
   <time name="diag">    2.12    2.12</time>
   <time name="diis">   13.05   13.06</time>
   <time name="orth">    0.18    0.18</time>
   <time name="total">   17.63   17.64</time>
   <energy>
    <i name="e_fr_energy">    -41.80561211 </i>
    <i name="e_wo_entrp">    -41.80561211 </i>
    <i name="e_0_energy">    -41.80561211 </i>
   </energy>
  </scstep>
  <scstep>
   <time name="diag">    2.11    2.11</time>
   <time name="diis">   13.11   13.12</time>
   <time name="orth">    0.18    0.18</time>
   <time name="total">   17.68   17.71</time>
   <energy>
    <i name="e_fr_energy">    -53.40741017 </i>
    <i name="e_wo_entrp">    -53.40741017 </i>
    <i name="e_0_energy">    -53.40741017 </i>
   </energy>
  </scstep>
  <scstep>
   <time name="diag">    2.12    2.12</time>
   <time name="diis">   13.05   13.06</time>
   <time name="orth">    0.17    0.17</time>
   <time name="total">   17.60   19.06</time>
   <energy>
    <i name="e_fr_energy">    -63.39602382 </i>
    <i name="e_wo_entrp">    -63.39602382 </i>
    <i name="e_0_energy">    -63.39602382 </i>
   </energy>
  </scstep>
  <scstep>
   <time name="diag">    2.12    2.12</time>
   <time name="diis">   13.09   13.10</time>
   <time name="orth">    0.18    0.18</time>
   <time name="total">   17.67   18.67</time>
   <energy>
    <i name="e_fr_energy">    -68.61107264 </i>
    <i name="e_wo_entrp">    -68.61107262 </i>
    <i name="e_0_energy">    -68.61107263 </i>
   </energy>
  </scstep>
  <scstep>
   <time name="diag">    2.12    2.12</time>
   <time name="diis">   13.03   13.04</time>
   <time name="orth">    0.18    0.18</time>
   <time name="total">   17.60   17.62</time>
   <energy>
    <i name="e_fr_energy">    -73.29828138 </i>
    <i name="e_wo_entrp">    -73.29828138 </i>
    <i name="e_0_energy">    -73.29828138 </i>
   </energy>
  </scstep>
  <scstep>
   <time name="diag">    2.12    2.12</time>
   <time name="diis">   13.06   13.07</time>
   <time name="orth">    0.18    0.18</time>
   <time name="total">   17.65   17.66</time>
   <energy>
    <i name="e_fr_energy">    -75.28530054 </i>
    <i name="e_wo_entrp">    -75.28530054 </i>
    <i name="e_0_energy">    -75.28530054 </i>
   </energy>
  </scstep>
  <scstep>
   <time name="diag">    2.12    2.12</time>
   <time name="diis">   13.12   13.12</time>
   <time name="orth">    0.18    0.18</time>
   <time name="total">   17.70   17.76</time>
   <energy>
    <i name="e_fr_energy">    -79.00573624 </i>
    <i name="e_wo_entrp">    -79.00573624 </i>
    <i name="e_0_energy">    -79.00573624 </i>
   </energy>
  </scstep>
  <scstep>
   <time name="diag">    2.11    2.12</time>
   <time name="diis">   13.40   13.41</time>
   <time name="orth">    0.18    0.18</time>
   <time name="total">   18.00   18.01</time>
   <energy>
    <i name="e_fr_energy">    -81.41645327 </i>
    <i name="e_wo_entrp">    -81.41645327 </i>
    <i name="e_0_energy">    -81.41645327 </i>
   </energy>
  </scstep>
  <scstep>
   <time name="diag">    2.11    2.11</time>
   <time name="diis">   13.46   13.46</time>
   <time name="orth">    0.18    0.18</time>
   <time name="total">   18.06   18.07</time>
   <energy>
    <i name="e_fr_energy">    -82.74612230 </i>
    <i name="e_wo_entrp">    -82.74612230 </i>
    <i name="e_0_energy">    -82.74612230 </i>
   </energy>
  </scstep>
  <scstep>
   <time name="diag">    2.12    2.12</time>
   <time name="diis">   13.04   13.05</time>
   <time name="orth">    0.18    0.18</time>
   <time name="total">   17.66   17.67</time>
   <energy>
    <i name="e_fr_energy">    -84.14813020 </i>
    <i name="e_wo_entrp">    -84.14813020 </i>
    <i name="e_0_energy">    -84.14813020 </i>
   </energy>
  </scstep>
  <scstep>
   <time name="diag">    2.12    2.12</time>
   <time name="diis">   13.11   13.12</time>
   <time name="orth">    0.18    0.18</time>
   <time name="total">   17.73   17.74</time>
   <energy>
    <i name="e_fr_energy">    -84.94291639 </i>
    <i name="e_wo_entrp">    -84.94291639 </i>
    <i name="e_0_energy">    -84.94291639 </i>
   </energy>
  </scstep>
  <scstep>
   <time name="diag">    2.12    2.12</time>
   <time name="diis">   13.09   13.10</time>
   <time name="orth">    0.18    0.18</time>
   <time name="total">   17.72   17.73</time>
   <energy>
    <i name="e_fr_energy">    -85.30735370 </i>
    <i name="e_wo_entrp">    -85.30735370 </i>
    <i name="e_0_energy">    -85.30735370 </i>
   </energy>
  </scstep>
  <scstep>
   <time name="diag">    2.12    2.12</time>
   <time name="diis">   13.16   13.16</time>
   <time name="orth">    0.18    0.18</time>
   <time name="total">   17.79   17.80</time>
   <energy>
    <i name="e_fr_energy">    -85.48172504 </i>
    <i name="e_wo_entrp">    -85.48172504 </i>
    <i name="e_0_energy">    -85.48172504 </i>
   </energy>
  </scstep>
  <scstep>
   <time name="diag">    2.12    2.12</time>
   <time name="diis">   13.00   13.00</time>
   <time name="orth">    0.18    0.18</time>
   <time name="total">   17.63   17.65</time>
   <energy>
    <i name="e_fr_energy">    -85.63639669 </i>
    <i name="e_wo_entrp">    -85.63639669 </i>
    <i name="e_0_energy">    -85.63639669 </i>
   </energy>
  </scstep>
  <scstep>
   <time name="diag">    2.12    2.12</time>
   <time name="diis">   11.32   11.32</time>
   <time name="orth">    0.18    0.18</time>
   <time name="total">   15.95   16.04</time>
   <energy>
    <i name="e_fr_energy">    -85.76760654 </i>
    <i name="e_wo_entrp">    -85.76760654 </i>
    <i name="e_0_energy">    -85.76760654 </i>
   </energy>
  </scstep>
  <scstep>
   <time name="diag">    2.11    2.12</time>
   <time name="diis">   10.22   10.23</time>
   <time name="orth">    0.18    0.18</time>
   <time name="total">   14.88   14.89</time>
   <energy>
    <i name="e_fr_energy">    -85.87507187 </i>
    <i name="e_wo_entrp">    -85.87507187 </i>
    <i name="e_0_energy">    -85.87507187 </i>
   </energy>
  </scstep>
  <scstep>
   <time name="diag">    2.12    2.12</time>
   <time name="diis">    9.77    9.77</time>
   <time name="orth">    0.18    0.18</time>
   <time name="total">   14.42   15.11</time>
   <energy>
    <i name="e_fr_energy">    -85.92947821 </i>
    <i name="e_wo_entrp">    -85.92947821 </i>
    <i name="e_0_energy">    -85.92947821 </i>
   </energy>
  </scstep>
  <scstep>
   <time name="diag">    2.12    2.12</time>
   <time name="diis">    9.50    9.51</time>
   <time name="orth">    0.18    0.18</time>
   <time name="total">   14.17   16.13</time>
   <energy>
    <i name="e_fr_energy">    -85.95346701 </i>
    <i name="e_wo_entrp">    -85.95346701 </i>
    <i name="e_0_energy">    -85.95346701 </i>
   </energy>
  </scstep>
  <scstep>
   <time name="diag">    2.12    2.12</time>
   <time name="diis">    9.32    9.33</time>
   <time name="orth">    0.18    0.18</time>
   <time name="total">   13.99   15.46</time>
   <energy>
    <i name="e_fr_energy">    -85.96734164 </i>
    <i name="e_wo_entrp">    -85.96734164 </i>
    <i name="e_0_energy">    -85.96734164 </i>
   </energy>
  </scstep>
  <scstep>
   <time name="diag">    2.12    2.12</time>
   <time name="diis">    9.32    9.32</time>
   <time name="orth">    0.18    0.18</time>
   <time name="total">   14.00   14.02</time>
   <energy>
    <i name="e_fr_energy">    -85.97778302 </i>
    <i name="e_wo_entrp">    -85.97778302 </i>
    <i name="e_0_energy">    -85.97778302 </i>
   </energy>
  </scstep>
  <scstep>
   <time name="diag">    2.12    2.12</time>
   <time name="diis">    9.10    9.10</time>
   <time name="orth">    0.18    0.18</time>
   <time name="total">   13.78   16.34</time>
   <energy>
    <i name="e_fr_energy">    -85.98518780 </i>
    <i name="e_wo_entrp">    -85.98518780 </i>
    <i name="e_0_energy">    -85.98518780 </i>
   </energy>
  </scstep>
  <scstep>
   <time name="diag">    2.12    2.12</time>
   <time name="diis">    8.73    8.74</time>
   <time name="orth">    0.18    0.18</time>
   <time name="total">   13.43   13.48</time>
   <energy>
    <i name="e_fr_energy">    -85.99029946 </i>
    <i name="e_wo_entrp">    -85.99029946 </i>
    <i name="e_0_energy">    -85.99029946 </i>
   </energy>
  </scstep>
  <scstep>
   <time name="diag">    2.12    2.12</time>
   <time name="diis">    8.97    8.98</time>
   <time name="orth">    0.18    0.18</time>
   <time name="total">   13.67   13.70</time>
   <energy>
    <i name="e_fr_energy">    -85.99331471 </i>
    <i name="e_wo_entrp">    -85.99331471 </i>
    <i name="e_0_energy">    -85.99331471 </i>
   </energy>
  </scstep>
  <scstep>
   <time name="diag">    2.11    2.12</time>
   <time name="diis">    8.48    8.48</time>
   <time name="orth">    0.18    0.18</time>
   <time name="total">   13.19   13.24</time>
   <energy>
    <i name="e_fr_energy">    -85.99411219 </i>
    <i name="e_wo_entrp">    -85.99411219 </i>
    <i name="e_0_energy">    -85.99411219 </i>
   </energy>
  </scstep>
  <scstep>
   <time name="diag">    2.12    2.12</time>
   <time name="diis">    7.96    7.97</time>
   <time name="orth">    0.18    0.18</time>
   <time name="total">   12.68   12.78</time>
   <energy>
    <i name="e_fr_energy">    -85.99441664 </i>
    <i name="e_wo_entrp">    -85.99441664 </i>
    <i name="e_0_energy">    -85.99441664 </i>
   </energy>
  </scstep>
  <scstep>
   <time name="diag">    2.12    2.12</time>
   <time name="diis">    7.44    7.44</time>
   <time name="orth">    0.18    0.18</time>
   <time name="total">   12.16   13.63</time>
   <energy>
    <i name="e_fr_energy">    -85.99458831 </i>
    <i name="e_wo_entrp">    -85.99458831 </i>
    <i name="e_0_energy">    -85.99458831 </i>
   </energy>
  </scstep>
  <scstep>
   <time name="diag">    2.11    2.12</time>
   <time name="diis">    7.45    7.45</time>
   <time name="orth">    0.18    0.18</time>
   <time name="total">   10.78   10.79</time>
   <energy>
    <i name="alphaZ">     33.86630271 </i>
    <i name="ewald"> 110566.07332656 </i>
    <i name="hartreedc">-148386.53965868 </i>
    <i name="XCdc">   1329.68197158 </i>
    <i name="pawpsdc">  38861.50100369 </i>
    <i name="pawaedc"> -42082.28161678 </i>
    <i name="eentropy">      0.00000000 </i>
    <i name="bandstr">  -2136.36354879 </i>
    <i name="atom">  41728.06753974 </i>
    <i name="e_fr_energy">    -85.99467998 </i>
    <i name="e_wo_entrp">    -85.99467998 </i>
    <i name="e_0_energy">    -85.99467998 </i>
   </energy>
  </scstep>
  <structure>
   <crystal>
    <varray name="basis" >
     <v>      26.88617260       0.00000000       0.00000000 </v>
     <v>       0.00000000      26.88617260       0.00000000 </v>
     <v>       0.00000000       0.00000000      26.88617260 </v>
    </varray>
    <i name="volume">  19435.10748387 </i>
    <varray name="rec_basis" >
     <v>       0.03719384       0.00000000       0.00000000 </v>
     <v>       0.00000000       0.03719384       0.00000000 </v>
     <v>       0.00000000       0.00000000       0.03719384 </v>
    </varray>
   </crystal>
   <varray name="positions" >
    <v>       0.50000000       0.35398398       0.48326133 </v>
    <v>       0.50000000       0.52040377       0.63411157 </v>
    <v>       0.37435789       0.54184019       0.44949545 </v>
    <v>       0.62564211       0.54184019       0.44949545 </v>
    <v>       0.50000000       0.42991953       0.61711813 </v>
    <v>       0.40909445       0.61152387       0.50022068 </v>
    <v>       0.59090555       0.61152387       0.50022068 </v>
    <v>       0.42458291       0.39214900       0.45436215 </v>
    <v>       0.57541709       0.39214900       0.45436215 </v>
    <v>       0.50000000       0.42131355       0.38924624 </v>
    <v>       0.62786919       0.54033593       0.54248479 </v>
    <v>       0.37213081       0.54033593       0.54248479 </v>
    <v>       0.45339126       0.59462010       0.42088447 </v>
    <v>       0.54660874       0.59462010       0.42088447 </v>
    <v>       0.42010456       0.47846819       0.59071235 </v>
    <v>       0.57989544       0.47846819       0.59071235 </v>
    <v>       0.42417013       0.47327384       0.41726838 </v>
    <v>       0.57582987       0.47327384       0.41726838 </v>
    <v>       0.60898544       0.46244182       0.50230320 </v>
    <v>       0.39101456       0.46244182       0.50230320 </v>
    <v>       0.45188602       0.40625578       0.54198584 </v>
    <v>       0.54811398       0.40625578       0.54198584 </v>
    <v>       0.50000000       0.51812819       0.40256717 </v>
    <v>       0.45374050       0.56960513       0.57061549 </v>
    <v>       0.54625950       0.56960513       0.57061549 </v>
    <v>       0.50000000       0.61550221       0.49908298 </v>
    <v>       0.50000000       0.48868115       0.55138054 </v>
    <v>       0.45363367       0.53183773       0.48571079 </v>
    <v>       0.54636633       0.53183773       0.48571079 </v>
    <v>       0.50000000       0.44736444       0.47114486 </v>
   </varray>
  </structure>
  <varray name="forces" >
   <v>       0.00000000       0.02019299      -0.03601176 </v>
   <v>       0.00000000       0.00583045      -0.00023978 </v>
   <v>      -0.00363400       0.00092276       0.00455109 </v>
   <v>       0.00363400       0.00092276       0.00455109 </v>
   <v>       0.00000000       0.00414611       0.00127344 </v>
   <v>       0.00174339      -0.00112789      -0.00253860 </v>
   <v>      -0.00174339      -0.00112789      -0.00253860 </v>
   <v>      -0.00861864       0.00470170      -0.00188430 </v>
   <v>       0.00861864       0.00470170      -0.00188430 </v>
   <v>       0.00000000      -0.02700100       0.02651311 </v>
   <v>       0.00768260       0.00204843       0.00373802 </v>
   <v>      -0.00768260       0.00204843       0.00373802 </v>
   <v>       0.00084551      -0.01531035      -0.00439214 </v>
   <v>      -0.00084551      -0.01531035      -0.00439214 </v>
   <v>      -0.00436187      -0.00470818      -0.00476595 </v>
   <v>       0.00436187      -0.00470818      -0.00476595 </v>
   <v>      -0.00698197       0.00639329      -0.00284829 </v>
   <v>       0.00698197       0.00639329      -0.00284829 </v>
   <v>       0.01262988       0.00448031       0.00499132 </v>
   <v>      -0.01262988       0.00448031       0.00499132 </v>
   <v>       0.00542767       0.00271309      -0.00600662 </v>
   <v>      -0.00542767       0.00271309      -0.00600662 </v>
   <v>       0.00000000      -0.01562423       0.00227887 </v>
   <v>      -0.00118748      -0.00195014      -0.00181185 </v>
   <v>       0.00118748      -0.00195014      -0.00181185 </v>
   <v>       0.00000000       0.00425032      -0.00585274 </v>
   <v>       0.00000000       0.00014977       0.01895284 </v>
   <v>      -0.00113691      -0.00081868       0.00569001 </v>
   <v>       0.00113691      -0.00081868       0.00569001 </v>
   <v>       0.00000000       0.01336692       0.00364065 </v>
  </varray>
  <varray name="stress" >
   <v>      -0.66941726       0.00000000       0.00000000 </v>
   <v>       0.00000000      -0.75762893       0.00054218 </v>
   <v>       0.00000000       0.00054218      -0.71861654 </v>
  </varray>
  <energy>
   <i name="e_fr_energy">    -85.99467998 </i>
   <i name="e_wo_entrp">    -85.99467998 </i>
   <i name="e_0_energy">      0.00000000 </i>
  </energy>
  <time name="totalsc">  742.55  763.88</time>
 </calculation>
 <calculation>
  <scstep>
   <time name="diag">    2.12    2.12</time>
   <time name="diis">   12.90   12.91</time>
   <time name="orth">    0.18    0.18</time>
   <time name="total">   17.45   17.48</time>
   <energy>
    <i name="alphaZ">     33.86630271 </i>
    <i name="ewald"> 110566.91725470 </i>
    <i name="hartreedc">-148387.45513422 </i>
    <i name="XCdc">   1329.68331699 </i>
    <i name="pawpsdc">  38861.47666561 </i>
    <i name="pawaedc"> -42082.25688454 </i>
    <i name="eentropy">      0.00000000 </i>
    <i name="bandstr">  -2136.29368346 </i>
    <i name="atom">  41728.06753974 </i>
    <i name="e_fr_energy">    -85.99462247 </i>
    <i name="e_wo_entrp">    -85.99462247 </i>
    <i name="e_0_energy">    -85.99462247 </i>
   </energy>
  </scstep>
  <scstep>
   <time name="diag">    2.12    2.12</time>
   <time name="diis">   13.74   13.74</time>
   <time name="orth">    0.18    0.18</time>
   <time name="total">   18.29   18.30</time>
   <energy>
    <i name="e_fr_energy">    -85.99504387 </i>
    <i name="e_wo_entrp">    -85.99504387 </i>
    <i name="e_0_energy">    -85.99504387 </i>
   </energy>
  </scstep>
  <scstep>
   <time name="diag">    2.12    2.12</time>
   <time name="diis">    9.10    9.10</time>
   <time name="orth">    0.18    0.18</time>
   <time name="total">   12.42   12.44</time>
   <energy>
    <i name="alphaZ">     33.86630271 </i>
    <i name="ewald"> 110566.91725470 </i>
    <i name="hartreedc">-148387.43698098 </i>
    <i name="XCdc">   1329.68194544 </i>
    <i name="pawpsdc">  38861.51452043 </i>
    <i name="pawaedc"> -42082.28110345 </i>
    <i name="eentropy">      0.00000000 </i>
    <i name="bandstr">  -2136.32452394 </i>
    <i name="atom">  41728.06753974 </i>
    <i name="e_fr_energy">    -85.99504536 </i>
    <i name="e_wo_entrp">    -85.99504536 </i>
    <i name="e_0_energy">    -85.99504536 </i>
   </energy>
  </scstep>
  <structure>
   <crystal>
    <varray name="basis" >
     <v>      26.88617260       0.00000000       0.00000000 </v>
     <v>       0.00000000      26.88617260       0.00000000 </v>
     <v>       0.00000000       0.00000000      26.88617260 </v>
    </varray>
    <i name="volume">  19435.10748387 </i>
    <varray name="rec_basis" >
     <v>       0.03719384       0.00000000       0.00000000 </v>
     <v>       0.00000000       0.03719384       0.00000000 </v>
     <v>       0.00000000       0.00000000       0.03719384 </v>
    </varray>
   </crystal>
   <varray name="positions" >
    <v>       0.50000000       0.35402021       0.48319671 </v>
    <v>       0.50000000       0.52041423       0.63411114 </v>
    <v>       0.37435137       0.54184184       0.44950362 </v>
    <v>       0.62564863       0.54184184       0.44950362 </v>
    <v>       0.50000000       0.42992697       0.61712041 </v>
    <v>       0.40909758       0.61152185       0.50021612 </v>
    <v>       0.59090242       0.61152185       0.50021612 </v>
    <v>       0.42456745       0.39215744       0.45435877 </v>
    <v>       0.57543255       0.39215744       0.45435877 </v>
    <v>       0.50000000       0.42126511       0.38929381 </v>
    <v>       0.62788297       0.54033961       0.54249150 </v>
    <v>       0.37211703       0.54033961       0.54249150 </v>
    <v>       0.45339278       0.59459262       0.42087659 </v>
    <v>       0.54660722       0.59459262       0.42087659 </v>
    <v>       0.42009673       0.47845975       0.59070379 </v>
    <v>       0.57990327       0.47845975       0.59070379 </v>
    <v>       0.42415760       0.47328531       0.41726327 </v>
    <v>       0.57584240       0.47328531       0.41726327 </v>
    <v>       0.60900810       0.46244986       0.50231216 </v>
    <v>       0.39099190       0.46244986       0.50231216 </v>
    <v>       0.45189576       0.40626064       0.54197506 </v>
    <v>       0.54810424       0.40626064       0.54197506 </v>
    <v>       0.50000000       0.51810016       0.40257126 </v>
    <v>       0.45373837       0.56960163       0.57061224 </v>
    <v>       0.54626163       0.56960163       0.57061224 </v>
    <v>       0.50000000       0.61550983       0.49907248 </v>
    <v>       0.50000000       0.48868142       0.55141454 </v>
    <v>       0.45363163       0.53183627       0.48572100 </v>
    <v>       0.54636837       0.53183627       0.48572100 </v>
    <v>       0.50000000       0.44738842       0.47115139 </v>
   </varray>
  </structure>
  <varray name="forces" >
   <v>      -0.00000000       0.00216065      -0.00450540 </v>
   <v>      -0.00000000       0.00086825       0.00285682 </v>
   <v>      -0.00074112       0.00002111       0.00107983 </v>
   <v>       0.00074112       0.00002111       0.00107983 </v>
   <v>      -0.00000000      -0.00162254       0.00191207 </v>
   <v>      -0.00025632      -0.00018053      -0.00001011 </v>
   <v>       0.00025632      -0.00018053      -0.00001011 </v>
   <v>      -0.00193553       0.00234016      -0.00044413 </v>
   <v>       0.00193553       0.00234016      -0.00044413 </v>
   <v>      -0.00000000      -0.00383923       0.00334371 </v>
   <v>       0.00133698       0.00109309       0.00003831 </v>
   <v>      -0.00133698       0.00109309       0.00003831 </v>
   <v>      -0.00001712      -0.00215028      -0.00082445 </v>
   <v>       0.00001712      -0.00215028      -0.00082445 </v>
   <v>      -0.00134291      -0.00001373       0.00077731 </v>
   <v>       0.00134291      -0.00001373       0.00077731 </v>
   <v>      -0.00119685      -0.00009146       0.00127655 </v>
   <v>       0.00119685      -0.00009146       0.00127655 </v>
   <v>       0.00092937      -0.00095562      -0.00086337 </v>
   <v>      -0.00092937      -0.00095562      -0.00086337 </v>
   <v>      -0.00018505       0.00063647      -0.00099842 </v>
   <v>       0.00018505       0.00063647      -0.00099842 </v>
   <v>      -0.00000000      -0.00146430       0.00022044 </v>
   <v>       0.00022449       0.00087684      -0.00022267 </v>
   <v>      -0.00022449       0.00087684      -0.00022267 </v>
   <v>      -0.00000000      -0.00025419      -0.00043169 </v>
   <v>      -0.00000000       0.00123403      -0.00699845 </v>
   <v>       0.00013359      -0.00123991       0.00085448 </v>
   <v>      -0.00013359      -0.00123991       0.00085448 </v>
   <v>      -0.00000000       0.00224503       0.00227584 </v>
  </varray>
  <varray name="stress" >
   <v>      -0.66308890       0.00000000       0.00000000 </v>
   <v>       0.00000000      -0.75036604       0.00066284 </v>
   <v>       0.00000000       0.00066283      -0.71145023 </v>
  </varray>
  <energy>
   <i name="e_fr_energy">    -85.99504536 </i>
   <i name="e_wo_entrp">    -85.99504536 </i>
   <i name="e_0_energy">      0.00000000 </i>
  </energy>
  <time name="totalsc">   75.36   75.45</time>
 </calculation>
 <calculation>
  <scstep>
   <time name="diag">    2.12    2.12</time>
   <time name="diis">   12.44   12.44</time>
   <time name="orth">    0.18    0.18</time>
   <time name="total">   16.99   17.01</time>
   <energy>
    <i name="alphaZ">     33.86630271 </i>
    <i name="ewald"> 110567.00109252 </i>
    <i name="hartreedc">-148387.54558898 </i>
    <i name="XCdc">   1329.68271709 </i>
    <i name="pawpsdc">  38861.54630609 </i>
    <i name="pawaedc"> -42082.31883104 </i>
    <i name="eentropy">      0.00000000 </i>
    <i name="bandstr">  -2136.29461157 </i>
    <i name="atom">  41728.06753974 </i>
    <i name="e_fr_energy">    -85.99507345 </i>
    <i name="e_wo_entrp">    -85.99507345 </i>
    <i name="e_0_energy">    -85.99507345 </i>
   </energy>
  </scstep>
  <scstep>
   <time name="diag">    2.12    2.12</time>
   <time name="diis">    9.28    9.28</time>
   <time name="orth">    0.18    0.18</time>
   <time name="total">   12.60   12.62</time>
   <energy>
    <i name="alphaZ">     33.86630271 </i>
    <i name="ewald"> 110567.00109252 </i>
    <i name="hartreedc">-148387.53139902 </i>
    <i name="XCdc">   1329.68169685 </i>
    <i name="pawpsdc">  38861.54637779 </i>
    <i name="pawaedc"> -42082.31173854 </i>
    <i name="eentropy">     -0.00000000 </i>
    <i name="bandstr">  -2136.31498306 </i>
    <i name="atom">  41728.06753974 </i>
    <i name="e_fr_energy">    -85.99511102 </i>
    <i name="e_wo_entrp">    -85.99511102 </i>
    <i name="e_0_energy">    -85.99511102 </i>
   </energy>
  </scstep>
  <structure>
   <crystal>
    <varray name="basis" >
     <v>      26.88617260       0.00000000       0.00000000 </v>
     <v>       0.00000000      26.88617260       0.00000000 </v>
     <v>       0.00000000       0.00000000      26.88617260 </v>
    </varray>
    <i name="volume">  19435.10748387 </i>
    <varray name="rec_basis" >
     <v>       0.03719384       0.00000000       0.00000000 </v>
     <v>       0.00000000       0.03719384       0.00000000 </v>
     <v>       0.00000000       0.00000000       0.03719384 </v>
    </varray>
   </crystal>
   <varray name="positions" >
    <v>       0.50000000       0.35402382       0.48319027 </v>
    <v>       0.50000000       0.52041527       0.63411110 </v>
    <v>       0.37435072       0.54184201       0.44950443 </v>
    <v>       0.62564928       0.54184201       0.44950443 </v>
    <v>       0.50000000       0.42992771       0.61712064 </v>
    <v>       0.40909789       0.61152165       0.50021567 </v>
    <v>       0.59090211       0.61152165       0.50021567 </v>
    <v>       0.42456590       0.39215828       0.45435843 </v>
    <v>       0.57543410       0.39215828       0.45435843 </v>
    <v>       0.50000000       0.42126028       0.38929855 </v>
    <v>       0.62788434       0.54033998       0.54249217 </v>
    <v>       0.37211566       0.54033998       0.54249217 </v>
    <v>       0.45339293       0.59458989       0.42087581 </v>
    <v>       0.54660707       0.59458989       0.42087581 </v>
    <v>       0.42009595       0.47845891       0.59070294 </v>
    <v>       0.57990405       0.47845891       0.59070294 </v>
    <v>       0.42415636       0.47328646       0.41726276 </v>
    <v>       0.57584364       0.47328646       0.41726276 </v>
    <v>       0.60901036       0.46245066       0.50231305 </v>
    <v>       0.39098964       0.46245066       0.50231305 </v>
    <v>       0.45189673       0.40626113       0.54197399 </v>
    <v>       0.54810327       0.40626113       0.54197399 </v>
    <v>       0.50000000       0.51809736       0.40257167 </v>
    <v>       0.45373816       0.56960128       0.57061191 </v>
    <v>       0.54626184       0.56960128       0.57061191 </v>
    <v>       0.50000000       0.61551059       0.49907143 </v>
    <v>       0.50000000       0.48868145       0.55141793 </v>
    <v>       0.45363143       0.53183612       0.48572202 </v>
    <v>       0.54636857       0.53183612       0.48572202 </v>
    <v>       0.50000000       0.44739081       0.47115204 </v>
   </varray>
  </structure>
  <varray name="forces" >
   <v>      -0.00000000       0.01259783      -0.02621219 </v>
   <v>      -0.00000000       0.00443796       0.00272087 </v>
   <v>      -0.00279512       0.00052983       0.00356252 </v>
   <v>       0.00279512       0.00052983       0.00356252 </v>
   <v>      -0.00000000       0.00064068       0.00268231 </v>
   <v>       0.00069073      -0.00083787      -0.00145674 </v>
   <v>      -0.00069073      -0.00083787      -0.00145674 </v>
   <v>      -0.00699692       0.00562136      -0.00151446 </v>
   <v>       0.00699692       0.00562136      -0.00151446 </v>
   <v>      -0.00000000      -0.02062863       0.01816026 </v>
   <v>       0.00513887       0.00220989       0.00215194 </v>
   <v>      -0.00513887       0.00220989       0.00215194 </v>
   <v>       0.00012502      -0.01059089      -0.00368352 </v>
   <v>      -0.00012502      -0.01059089      -0.00368352 </v>
   <v>      -0.00383760      -0.00267306      -0.00197090 </v>
   <v>       0.00383760      -0.00267306      -0.00197090 </v>
   <v>      -0.00548036       0.00365570      -0.00006512 </v>
   <v>       0.00548036       0.00365570      -0.00006512 </v>
   <v>       0.00780244       0.00137815       0.00187703 </v>
   <v>      -0.00780244       0.00137815       0.00187703 </v>
   <v>       0.00275571       0.00243261      -0.00437161 </v>
   <v>      -0.00275571       0.00243261      -0.00437161 </v>
   <v>      -0.00000000      -0.01024098       0.00135181 </v>
   <v>      -0.00057823      -0.00045042      -0.00119802 </v>
   <v>       0.00057823      -0.00045042      -0.00119802 </v>
   <v>      -0.00000000       0.00230712      -0.00365169 </v>
   <v>      -0.00000000       0.00132871       0.00486738 </v>
   <v>      -0.00076755      -0.00189197       0.00449917 </v>
   <v>       0.00076755      -0.00189197       0.00449917 </v>
   <v>      -0.00000000       0.01079064       0.00442069 </v>
  </varray>
  <varray name="stress" >
   <v>      -0.65202520       0.00000000       0.00000000 </v>
   <v>       0.00000000      -0.74073515       0.00063301 </v>
   <v>       0.00000000       0.00063301      -0.70136184 </v>
  </varray>
  <energy>
   <i name="e_fr_energy">    -85.99511102 </i>
   <i name="e_wo_entrp">    -85.99511102 </i>
   <i name="e_0_energy">     -0.00000000 </i>
  </energy>
  <time name="totalsc">   55.02   56.03</time>
  <eigenvalues>
   <array>
    <dimension dim="1">band</dimension>
    <dimension dim="2">kpoint</dimension>
    <dimension dim="3">spin</dimension>
    <field>eigene</field>
    <field>occ</field>
    <set>
     <set comment="spin 1">
      <set comment="kpoint 1">
       <r>  -11.7714    1.0000 </r>
       <r>  -10.2932    1.0000 </r>
       <r>  -10.2311    1.0000 </r>
       <r>  -10.1709    1.0000 </r>
       <r>   -8.8706    1.0000 </r>
       <r>   -8.8574    1.0000 </r>
       <r>   -8.7790    1.0000 </r>
       <r>   -8.7375    1.0000 </r>
       <r>   -8.6119    1.0000 </r>
       <r>   -8.5127    1.0000 </r>
       <r>   -8.3874    1.0000 </r>
       <r>   -8.2880    1.0000 </r>
       <r>   -8.2570    1.0000 </r>
       <r>   -8.2406    1.0000 </r>
       <r>   -8.1283    1.0000 </r>
       <r>   -8.0897    1.0000 </r>
       <r>   -8.0269    1.0000 </r>
       <r>   -8.0241    1.0000 </r>
       <r>   -7.9746    1.0000 </r>
       <r>   -7.9438    1.0000 </r>
       <r>   -7.9061    1.0000 </r>
       <r>   -7.9016    1.0000 </r>
       <r>   -7.7142    1.0000 </r>
       <r>   -7.6448    1.0000 </r>
       <r>   -7.6033    1.0000 </r>
       <r>   -7.5275    1.0000 </r>
       <r>   -7.4265    1.0000 </r>
       <r>   -7.4090    1.0000 </r>
       <r>   -7.3928    1.0000 </r>
       <r>   -7.3705    1.0000 </r>
       <r>   -7.3495    1.0000 </r>
       <r>   -7.3062    1.0000 </r>
       <r>   -7.2916    1.0000 </r>
       <r>   -7.2658    1.0000 </r>
       <r>   -7.2229    1.0000 </r>
       <r>   -7.1998    1.0000 </r>
       <r>   -7.1694    1.0000 </r>
       <r>   -7.1658    1.0000 </r>
       <r>   -7.1490    1.0000 </r>
       <r>   -7.1267    1.0000 </r>
       <r>   -7.0866    1.0000 </r>
       <r>   -7.0767    1.0000 </r>
       <r>   -7.0548    1.0000 </r>
       <r>   -7.0204    1.0000 </r>
       <r>   -7.0016    1.0000 </r>
       <r>   -6.9835    1.0000 </r>
       <r>   -6.9522    1.0000 </r>
       <r>   -6.9472    1.0000 </r>
       <r>   -6.9145    1.0000 </r>
       <r>   -6.9113    1.0000 </r>
       <r>   -6.9062    1.0000 </r>
       <r>   -6.8843    1.0000 </r>
       <r>   -6.8722    1.0000 </r>
       <r>   -6.7978    1.0000 </r>
       <r>   -6.7966    1.0000 </r>
       <r>   -6.7855    1.0000 </r>
       <r>   -6.7359    1.0000 </r>
       <r>   -6.7198    1.0000 </r>
       <r>   -6.7041    1.0000 </r>
       <r>   -6.7030    1.0000 </r>
       <r>   -6.6883    1.0000 </r>
       <r>   -6.6681    1.0000 </r>
       <r>   -6.6677    1.0000 </r>
       <r>   -6.6407    1.0000 </r>
       <r>   -6.6113    1.0000 </r>
       <r>   -6.5830    1.0000 </r>
       <r>   -6.4957    1.0000 </r>
       <r>   -6.4502    1.0000 </r>
       <r>   -6.4411    1.0000 </r>
       <r>   -6.4028    1.0000 </r>
       <r>   -6.3852    1.0000 </r>
       <r>   -6.3677    1.0000 </r>
       <r>   -6.3622    1.0000 </r>
       <r>   -6.3517    1.0000 </r>
       <r>   -6.3396    1.0000 </r>
       <r>   -6.3298    1.0000 </r>
       <r>   -6.2847    1.0000 </r>
       <r>   -6.2786    1.0000 </r>
       <r>   -6.2706    1.0000 </r>
       <r>   -6.2378    1.0000 </r>
       <r>   -6.2320    1.0000 </r>
       <r>   -6.2193    1.0000 </r>
       <r>   -6.1811    1.0000 </r>
       <r>   -6.1674    1.0000 </r>
       <r>   -6.1657    1.0000 </r>
       <r>   -6.1486    1.0000 </r>
       <r>   -6.1288    1.0000 </r>
       <r>   -6.1133    1.0000 </r>
       <r>   -6.0892    1.0000 </r>
       <r>   -6.0817    1.0000 </r>
       <r>   -6.0703    1.0000 </r>
       <r>   -6.0401    1.0000 </r>
       <r>   -6.0272    1.0000 </r>
       <r>   -5.9868    1.0000 </r>
       <r>   -5.9743    1.0000 </r>
       <r>   -5.9720    1.0000 </r>
       <r>   -5.9570    1.0000 </r>
       <r>   -5.9256    1.0000 </r>
       <r>   -5.9197    1.0000 </r>
       <r>   -5.9157    1.0000 </r>
       <r>   -5.9033    1.0000 </r>
       <r>   -5.8962    1.0000 </r>
       <r>   -5.8869    1.0000 </r>
       <r>   -5.8528    1.0000 </r>
       <r>   -5.8489    1.0000 </r>
       <r>   -5.8262    1.0000 </r>
       <r>   -5.8168    1.0000 </r>
       <r>   -5.8117    1.0000 </r>
       <r>   -5.7851    1.0000 </r>
       <r>   -5.7837    1.0000 </r>
       <r>   -5.7762    1.0000 </r>
       <r>   -5.7618    1.0000 </r>
       <r>   -5.7453    1.0000 </r>
       <r>   -5.7392    1.0000 </r>
       <r>   -5.7124    1.0000 </r>
       <r>   -5.7093    1.0000 </r>
       <r>   -5.7036    1.0000 </r>
       <r>   -5.6983    1.0000 </r>
       <r>   -5.6899    1.0000 </r>
       <r>   -5.6854    1.0000 </r>
       <r>   -5.6791    1.0000 </r>
       <r>   -5.6701    1.0000 </r>
       <r>   -5.6515    1.0000 </r>
       <r>   -5.6436    1.0000 </r>
       <r>   -5.6327    1.0000 </r>
       <r>   -5.6203    1.0000 </r>
       <r>   -5.6118    1.0000 </r>
       <r>   -5.6010    1.0000 </r>
       <r>   -5.5997    1.0000 </r>
       <r>   -5.5705    1.0000 </r>
       <r>   -5.5613    1.0000 </r>
       <r>   -5.5554    1.0000 </r>
       <r>   -5.5548    1.0000 </r>
       <r>   -5.5490    1.0000 </r>
       <r>   -5.5393    1.0000 </r>
       <r>   -5.5185    1.0000 </r>
       <r>   -5.5165    1.0000 </r>
       <r>   -5.4936    1.0000 </r>
       <r>   -5.4856    1.0000 </r>
       <r>   -5.4807    1.0000 </r>
       <r>   -5.4586    1.0000 </r>
       <r>   -5.4451    1.0000 </r>
       <r>   -5.4413    1.0000 </r>
       <r>   -5.4403    1.0000 </r>
       <r>   -5.4313    1.0000 </r>
       <r>   -5.4215    1.0000 </r>
       <r>   -5.4119    1.0000 </r>
       <r>   -5.3914    1.0000 </r>
       <r>   -5.3858    1.0000 </r>
       <r>   -5.3716    1.0000 </r>
       <r>   -5.3679    1.0000 </r>
       <r>   -5.3514    1.0000 </r>
       <r>   -5.3300    1.0000 </r>
       <r>   -5.3118    1.0000 </r>
       <r>   -5.3056    1.0000 </r>
       <r>   -5.3009    1.0000 </r>
       <r>   -5.2862    1.0000 </r>
       <r>   -5.2729    1.0000 </r>
       <r>   -5.1974    1.0000 </r>
       <r>   -5.0377    1.0000 </r>
       <r>   -4.4891    1.0000 </r>
       <r>   -4.4463    1.0000 </r>
       <r>   -4.3309    1.0000 </r>
       <r>   -4.2308    1.0000 </r>
       <r>   -4.1652    1.0000 </r>
       <r>   -4.0091    0.0000 </r>
       <r>   -3.8729    0.0000 </r>
       <r>   -3.4802    0.0000 </r>
       <r>   -3.3701    0.0000 </r>
       <r>   -3.3317    0.0000 </r>
       <r>   -2.6016    0.0000 </r>
       <r>   -2.5886    0.0000 </r>
       <r>   -2.5272    0.0000 </r>
       <r>   -2.4175    0.0000 </r>
       <r>   -2.2463    0.0000 </r>
       <r>   -2.2086    0.0000 </r>
       <r>   -2.1357    0.0000 </r>
       <r>   -2.0172    0.0000 </r>
       <r>   -2.0141    0.0000 </r>
       <r>   -1.9013    0.0000 </r>
       <r>   -1.8318    0.0000 </r>
       <r>   -1.7419    0.0000 </r>
       <r>   -1.7243    0.0000 </r>
       <r>   -1.6847    0.0000 </r>
       <r>   -1.3995    0.0000 </r>
       <r>   -0.6696    0.0000 </r>
       <r>   -0.4416    0.0000 </r>
       <r>   -0.2978    0.0000 </r>
       <r>   -0.2306    0.0000 </r>
       <r>   -0.1140    0.0000 </r>
       <r>   -0.0249    0.0000 </r>
       <r>    0.0171    0.0000 </r>
       <r>    0.1008    0.0000 </r>
       <r>    0.1131    0.0000 </r>
       <r>    0.1206    0.0000 </r>
       <r>    0.1717    0.0000 </r>
       <r>    0.2012    0.0000 </r>
       <r>    0.2371    0.0000 </r>
       <r>    0.2770    0.0000 </r>
       <r>    0.2978    0.0000 </r>
       <r>    0.3282    0.0000 </r>
       <r>    0.3532    0.0000 </r>
       <r>    0.3647    0.0000 </r>
       <r>    0.4238    0.0000 </r>
       <r>    0.4314    0.0000 </r>
       <r>    0.4730    0.0000 </r>
       <r>    0.4801    0.0000 </r>
       <r>    0.4812    0.0000 </r>
       <r>    0.4938    0.0000 </r>
       <r>    0.4939    0.0000 </r>
       <r>    0.5044    0.0000 </r>
       <r>    0.5167    0.0000 </r>
       <r>    0.5174    0.0000 </r>
       <r>    0.5326    0.0000 </r>
       <r>    0.5354    0.0000 </r>
       <r>    0.5468    0.0000 </r>
       <r>    0.6322    0.0000 </r>
       <r>    0.6490    0.0000 </r>
       <r>    0.6723    0.0000 </r>
       <r>    0.7074    0.0000 </r>
       <r>    0.7270    0.0000 </r>
       <r>    0.7317    0.0000 </r>
       <r>    0.7334    0.0000 </r>
       <r>    0.7501    0.0000 </r>
       <r>    0.7776    0.0000 </r>
       <r>    0.7936    0.0000 </r>
       <r>    0.8149    0.0000 </r>
       <r>    0.8330    0.0000 </r>
       <r>    0.8547    0.0000 </r>
       <r>    0.9086    0.0000 </r>
       <r>    0.9117    0.0000 </r>
       <r>    0.9262    0.0000 </r>
       <r>    0.9637    0.0000 </r>
       <r>    0.9923    0.0000 </r>
       <r>    1.0113    0.0000 </r>
       <r>    1.0564    0.0000 </r>
       <r>    1.0823    0.0000 </r>
       <r>    1.0826    0.0000 </r>
       <r>    1.0853    0.0000 </r>
       <r>    1.0916    0.0000 </r>
       <r>    1.1076    0.0000 </r>
       <r>    1.1185    0.0000 </r>
       <r>    1.1310    0.0000 </r>
       <r>    1.1505    0.0000 </r>
      </set>
     </set>
     <set comment="spin 2">
      <set comment="kpoint 1">
       <r>  -11.7714    1.0000 </r>
       <r>  -10.2932    1.0000 </r>
       <r>  -10.2311    1.0000 </r>
       <r>  -10.1709    1.0000 </r>
       <r>   -8.8706    1.0000 </r>
       <r>   -8.8574    1.0000 </r>
       <r>   -8.7790    1.0000 </r>
       <r>   -8.7375    1.0000 </r>
       <r>   -8.6119    1.0000 </r>
       <r>   -8.5127    1.0000 </r>
       <r>   -8.3874    1.0000 </r>
       <r>   -8.2880    1.0000 </r>
       <r>   -8.2570    1.0000 </r>
       <r>   -8.2406    1.0000 </r>
       <r>   -8.1283    1.0000 </r>
       <r>   -8.0897    1.0000 </r>
       <r>   -8.0269    1.0000 </r>
       <r>   -8.0241    1.0000 </r>
       <r>   -7.9746    1.0000 </r>
       <r>   -7.9438    1.0000 </r>
       <r>   -7.9062    1.0000 </r>
       <r>   -7.9016    1.0000 </r>
       <r>   -7.7142    1.0000 </r>
       <r>   -7.6448    1.0000 </r>
       <r>   -7.6033    1.0000 </r>
       <r>   -7.5275    1.0000 </r>
       <r>   -7.4265    1.0000 </r>
       <r>   -7.4090    1.0000 </r>
       <r>   -7.3928    1.0000 </r>
       <r>   -7.3705    1.0000 </r>
       <r>   -7.3495    1.0000 </r>
       <r>   -7.3062    1.0000 </r>
       <r>   -7.2916    1.0000 </r>
       <r>   -7.2658    1.0000 </r>
       <r>   -7.2229    1.0000 </r>
       <r>   -7.1998    1.0000 </r>
       <r>   -7.1694    1.0000 </r>
       <r>   -7.1658    1.0000 </r>
       <r>   -7.1490    1.0000 </r>
       <r>   -7.1267    1.0000 </r>
       <r>   -7.0866    1.0000 </r>
       <r>   -7.0767    1.0000 </r>
       <r>   -7.0548    1.0000 </r>
       <r>   -7.0204    1.0000 </r>
       <r>   -7.0016    1.0000 </r>
       <r>   -6.9835    1.0000 </r>
       <r>   -6.9522    1.0000 </r>
       <r>   -6.9472    1.0000 </r>
       <r>   -6.9145    1.0000 </r>
       <r>   -6.9113    1.0000 </r>
       <r>   -6.9062    1.0000 </r>
       <r>   -6.8843    1.0000 </r>
       <r>   -6.8722    1.0000 </r>
       <r>   -6.7978    1.0000 </r>
       <r>   -6.7966    1.0000 </r>
       <r>   -6.7855    1.0000 </r>
       <r>   -6.7359    1.0000 </r>
       <r>   -6.7198    1.0000 </r>
       <r>   -6.7041    1.0000 </r>
       <r>   -6.7030    1.0000 </r>
       <r>   -6.6883    1.0000 </r>
       <r>   -6.6681    1.0000 </r>
       <r>   -6.6677    1.0000 </r>
       <r>   -6.6407    1.0000 </r>
       <r>   -6.6113    1.0000 </r>
       <r>   -6.5830    1.0000 </r>
       <r>   -6.4957    1.0000 </r>
       <r>   -6.4502    1.0000 </r>
       <r>   -6.4411    1.0000 </r>
       <r>   -6.4028    1.0000 </r>
       <r>   -6.3852    1.0000 </r>
       <r>   -6.3677    1.0000 </r>
       <r>   -6.3622    1.0000 </r>
       <r>   -6.3517    1.0000 </r>
       <r>   -6.3396    1.0000 </r>
       <r>   -6.3298    1.0000 </r>
       <r>   -6.2847    1.0000 </r>
       <r>   -6.2786    1.0000 </r>
       <r>   -6.2706    1.0000 </r>
       <r>   -6.2378    1.0000 </r>
       <r>   -6.2320    1.0000 </r>
       <r>   -6.2193    1.0000 </r>
       <r>   -6.1811    1.0000 </r>
       <r>   -6.1674    1.0000 </r>
       <r>   -6.1657    1.0000 </r>
       <r>   -6.1486    1.0000 </r>
       <r>   -6.1289    1.0000 </r>
       <r>   -6.1133    1.0000 </r>
       <r>   -6.0892    1.0000 </r>
       <r>   -6.0817    1.0000 </r>
       <r>   -6.0703    1.0000 </r>
       <r>   -6.0401    1.0000 </r>
       <r>   -6.0272    1.0000 </r>
       <r>   -5.9868    1.0000 </r>
       <r>   -5.9743    1.0000 </r>
       <r>   -5.9720    1.0000 </r>
       <r>   -5.9570    1.0000 </r>
       <r>   -5.9256    1.0000 </r>
       <r>   -5.9197    1.0000 </r>
       <r>   -5.9157    1.0000 </r>
       <r>   -5.9033    1.0000 </r>
       <r>   -5.8962    1.0000 </r>
       <r>   -5.8869    1.0000 </r>
       <r>   -5.8528    1.0000 </r>
       <r>   -5.8489    1.0000 </r>
       <r>   -5.8262    1.0000 </r>
       <r>   -5.8168    1.0000 </r>
       <r>   -5.8117    1.0000 </r>
       <r>   -5.7851    1.0000 </r>
       <r>   -5.7837    1.0000 </r>
       <r>   -5.7762    1.0000 </r>
       <r>   -5.7618    1.0000 </r>
       <r>   -5.7452    1.0000 </r>
       <r>   -5.7392    1.0000 </r>
       <r>   -5.7124    1.0000 </r>
       <r>   -5.7093    1.0000 </r>
       <r>   -5.7036    1.0000 </r>
       <r>   -5.6983    1.0000 </r>
       <r>   -5.6899    1.0000 </r>
       <r>   -5.6854    1.0000 </r>
       <r>   -5.6791    1.0000 </r>
       <r>   -5.6701    1.0000 </r>
       <r>   -5.6515    1.0000 </r>
       <r>   -5.6436    1.0000 </r>
       <r>   -5.6327    1.0000 </r>
       <r>   -5.6203    1.0000 </r>
       <r>   -5.6118    1.0000 </r>
       <r>   -5.6010    1.0000 </r>
       <r>   -5.5998    1.0000 </r>
       <r>   -5.5705    1.0000 </r>
       <r>   -5.5613    1.0000 </r>
       <r>   -5.5554    1.0000 </r>
       <r>   -5.5548    1.0000 </r>
       <r>   -5.5490    1.0000 </r>
       <r>   -5.5393    1.0000 </r>
       <r>   -5.5185    1.0000 </r>
       <r>   -5.5165    1.0000 </r>
       <r>   -5.4936    1.0000 </r>
       <r>   -5.4856    1.0000 </r>
       <r>   -5.4807    1.0000 </r>
       <r>   -5.4586    1.0000 </r>
       <r>   -5.4451    1.0000 </r>
       <r>   -5.4413    1.0000 </r>
       <r>   -5.4403    1.0000 </r>
       <r>   -5.4313    1.0000 </r>
       <r>   -5.4215    1.0000 </r>
       <r>   -5.4119    1.0000 </r>
       <r>   -5.3914    1.0000 </r>
       <r>   -5.3858    1.0000 </r>
       <r>   -5.3716    1.0000 </r>
       <r>   -5.3679    1.0000 </r>
       <r>   -5.3514    1.0000 </r>
       <r>   -5.3300    1.0000 </r>
       <r>   -5.3118    1.0000 </r>
       <r>   -5.3056    1.0000 </r>
       <r>   -5.3009    1.0000 </r>
       <r>   -5.2862    1.0000 </r>
       <r>   -5.2729    1.0000 </r>
       <r>   -5.1974    1.0000 </r>
       <r>   -5.0377    1.0000 </r>
       <r>   -4.4891    1.0000 </r>
       <r>   -4.4463    1.0000 </r>
       <r>   -4.3309    1.0000 </r>
       <r>   -4.2308    1.0000 </r>
       <r>   -4.1652    1.0000 </r>
       <r>   -4.0091    0.0000 </r>
       <r>   -3.8729    0.0000 </r>
       <r>   -3.4802    0.0000 </r>
       <r>   -3.3701    0.0000 </r>
       <r>   -3.3317    0.0000 </r>
       <r>   -2.6016    0.0000 </r>
       <r>   -2.5886    0.0000 </r>
       <r>   -2.5272    0.0000 </r>
       <r>   -2.4175    0.0000 </r>
       <r>   -2.2463    0.0000 </r>
       <r>   -2.2086    0.0000 </r>
       <r>   -2.1357    0.0000 </r>
       <r>   -2.0172    0.0000 </r>
       <r>   -2.0141    0.0000 </r>
       <r>   -1.9013    0.0000 </r>
       <r>   -1.8318    0.0000 </r>
       <r>   -1.7419    0.0000 </r>
       <r>   -1.7243    0.0000 </r>
       <r>   -1.6847    0.0000 </r>
       <r>   -1.3994    0.0000 </r>
       <r>   -0.6696    0.0000 </r>
       <r>   -0.4415    0.0000 </r>
       <r>   -0.2974    0.0000 </r>
       <r>   -0.2305    0.0000 </r>
       <r>   -0.1133    0.0000 </r>
       <r>   -0.0240    0.0000 </r>
       <r>    0.0173    0.0000 </r>
       <r>    0.1060    0.0000 </r>
       <r>    0.1179    0.0000 </r>
       <r>    0.1531    0.0000 </r>
       <r>    0.1725    0.0000 </r>
       <r>    0.2114    0.0000 </r>
       <r>    0.2535    0.0000 </r>
       <r>    0.2918    0.0000 </r>
       <r>    0.3187    0.0000 </r>
       <r>    0.3514    0.0000 </r>
       <r>    0.3743    0.0000 </r>
       <r>    0.3941    0.0000 </r>
       <r>    0.4349    0.0000 </r>
       <r>    0.4437    0.0000 </r>
       <r>    0.5189    0.0000 </r>
       <r>    0.5199    0.0000 </r>
       <r>    0.5225    0.0000 </r>
       <r>    0.5333    0.0000 </r>
       <r>    0.5406    0.0000 </r>
       <r>    0.5575    0.0000 </r>
       <r>    0.5702    0.0000 </r>
       <r>    0.5795    0.0000 </r>
       <r>    0.5827    0.0000 </r>
       <r>    0.5891    0.0000 </r>
       <r>    0.5909    0.0000 </r>
       <r>    0.6683    0.0000 </r>
       <r>    0.6768    0.0000 </r>
       <r>    0.7034    0.0000 </r>
       <r>    0.7439    0.0000 </r>
       <r>    0.7733    0.0000 </r>
       <r>    0.7846    0.0000 </r>
       <r>    0.7886    0.0000 </r>
       <r>    0.7914    0.0000 </r>
       <r>    0.8184    0.0000 </r>
       <r>    0.8189    0.0000 </r>
       <r>    0.8555    0.0000 </r>
       <r>    0.8697    0.0000 </r>
       <r>    0.8851    0.0000 </r>
       <r>    0.9365    0.0000 </r>
       <r>    0.9521    0.0000 </r>
       <r>    0.9565    0.0000 </r>
       <r>    1.0037    0.0000 </r>
       <r>    1.0240    0.0000 </r>
       <r>    1.0776    0.0000 </r>
       <r>    1.1103    0.0000 </r>
       <r>    1.1154    0.0000 </r>
       <r>    1.1196    0.0000 </r>
       <r>    1.1229    0.0000 </r>
       <r>    1.1524    0.0000 </r>
       <r>    1.1682    0.0000 </r>
       <r>    1.1719    0.0000 </r>
       <r>    1.1771    0.0000 </r>
       <r>    1.2087    0.0000 </r>
      </set>
     </set>
    </set>
   </array>
  </eigenvalues>
  <separator name="orbital magnetization" >
   <v name="MAGDIPOLOUT">      0.00000000      0.00000000      0.00000000</v>
  </separator>
  <dos>
   <i name="efermi">     -4.16287774 </i>
   <total>
    <array>
     <dimension dim="1">gridpoints</dimension>
     <dimension dim="2">spin</dimension>
     <field>energy</field>
     <field>total</field>
     <field>integrated</field>
     <set>
      <set comment="spin 1">
       <r>   -12.4204     0.0000     0.0000 </r>
       <r>   -12.3728     0.0000     0.0000 </r>
       <r>   -12.3252     0.0000     0.0000 </r>
       <r>   -12.2776     0.0000     0.0000 </r>
       <r>   -12.2300     0.0000     0.0000 </r>
       <r>   -12.1824     0.0000     0.0000 </r>
       <r>   -12.1348     0.0000     0.0000 </r>
       <r>   -12.0872     0.0000     0.0000 </r>
       <r>   -12.0396     0.0000     0.0000 </r>
       <r>   -11.9920     0.0000     0.0000 </r>
       <r>   -11.9444     0.0000     0.0000 </r>
       <r>   -11.8968     0.0000     0.0000 </r>
       <r>   -11.8492     0.0000     0.0000 </r>
       <r>   -11.8016     0.0000     0.0000 </r>
       <r>   -11.7541     0.0000     1.0000 </r>
       <r>   -11.7065     0.0000     1.0000 </r>
       <r>   -11.6589     0.0000     1.0000 </r>
       <r>   -11.6113     0.0000     1.0000 </r>
       <r>   -11.5637     0.0000     1.0000 </r>
       <r>   -11.5161     0.0000     1.0000 </r>
       <r>   -11.4685     0.0000     1.0000 </r>
       <r>   -11.4209     0.0000     1.0000 </r>
       <r>   -11.3733     0.0000     1.0000 </r>
       <r>   -11.3257     0.0000     1.0000 </r>
       <r>   -11.2781     0.0000     1.0000 </r>
       <r>   -11.2305     0.0000     1.0000 </r>
       <r>   -11.1829     0.0000     1.0000 </r>
       <r>   -11.1353     0.0000     1.0000 </r>
       <r>   -11.0877     0.0000     1.0000 </r>
       <r>   -11.0401     0.0000     1.0000 </r>
       <r>   -10.9926     0.0000     1.0000 </r>
       <r>   -10.9450     0.0000     1.0000 </r>
       <r>   -10.8974     0.0000     1.0000 </r>
       <r>   -10.8498     0.0000     1.0000 </r>
       <r>   -10.8022     0.0000     1.0000 </r>
       <r>   -10.7546     0.0000     1.0000 </r>
       <r>   -10.7070     0.0000     1.0000 </r>
       <r>   -10.6594     0.0000     1.0000 </r>
       <r>   -10.6118     0.0000     1.0000 </r>
       <r>   -10.5642     0.0000     1.0000 </r>
       <r>   -10.5166     0.0000     1.0000 </r>
       <r>   -10.4690     0.0000     1.0000 </r>
       <r>   -10.4214     0.0000     1.0000 </r>
       <r>   -10.3738     0.0000     1.0000 </r>
       <r>   -10.3262     0.0000     1.0000 </r>
       <r>   -10.2787     0.0000     2.0000 </r>
       <r>   -10.2311    15.1207     2.7196 </r>
       <r>   -10.1835     0.0000     3.0000 </r>
       <r>   -10.1359     0.0000     4.0000 </r>
       <r>   -10.0883     0.0000     4.0000 </r>
       <r>   -10.0407     0.0000     4.0000 </r>
       <r>    -9.9931     0.0000     4.0000 </r>
       <r>    -9.9455     0.0000     4.0000 </r>
       <r>    -9.8979     0.0000     4.0000 </r>
       <r>    -9.8503     0.0000     4.0000 </r>
       <r>    -9.8027     0.0000     4.0000 </r>
       <r>    -9.7551     0.0000     4.0000 </r>
       <r>    -9.7075     0.0000     4.0000 </r>
       <r>    -9.6599     0.0000     4.0000 </r>
       <r>    -9.6123     0.0000     4.0000 </r>
       <r>    -9.5647     0.0000     4.0000 </r>
       <r>    -9.5172     0.0000     4.0000 </r>
       <r>    -9.4696     0.0000     4.0000 </r>
       <r>    -9.4220     0.0000     4.0000 </r>
       <r>    -9.3744     0.0000     4.0000 </r>
       <r>    -9.3268     0.0000     4.0000 </r>
       <r>    -9.2792     0.0000     4.0000 </r>
       <r>    -9.2316     0.0000     4.0000 </r>
       <r>    -9.1840     0.0000     4.0000 </r>
       <r>    -9.1364     0.0000     4.0000 </r>
       <r>    -9.0888     0.0000     4.0000 </r>
       <r>    -9.0412     0.0000     4.0000 </r>
       <r>    -8.9936     0.0000     4.0000 </r>
       <r>    -8.9460     0.0000     4.0000 </r>
       <r>    -8.8984     0.0000     4.0000 </r>
       <r>    -8.8508     0.0000     6.0000 </r>
       <r>    -8.8033     0.0000     6.0000 </r>
       <r>    -8.7557     0.0000     7.0000 </r>
       <r>    -8.7081     0.0000     8.0000 </r>
       <r>    -8.6605     0.0000     8.0000 </r>
       <r>    -8.6129     0.0000     8.0000 </r>
       <r>    -8.5653     0.0000     9.0000 </r>
       <r>    -8.5177     0.0000     9.0000 </r>
       <r>    -8.4701     0.0000    10.0000 </r>
       <r>    -8.4225     0.0000    10.0000 </r>
       <r>    -8.3749     0.0000    11.0000 </r>
       <r>    -8.3273     0.0000    11.0000 </r>
       <r>    -8.2797     0.0000    12.0000 </r>
       <r>    -8.2321     0.0000    14.0000 </r>
       <r>    -8.1845     0.0000    14.0000 </r>
       <r>    -8.1369     0.0000    14.0000 </r>
       <r>    -8.0893    21.0112    16.0000 </r>
       <r>    -8.0418     0.0000    16.0000 </r>
       <r>    -7.9942     0.0000    18.0000 </r>
       <r>    -7.9466     0.0000    19.0000 </r>
       <r>    -7.8990     0.0000    22.0000 </r>
       <r>    -7.8514     0.0000    22.0000 </r>
       <r>    -7.8038     0.0000    22.0000 </r>
       <r>    -7.7562     0.0000    22.0000 </r>
       <r>    -7.7086     0.0000    23.0000 </r>
       <r>    -7.6610     0.0000    23.0000 </r>
       <r>    -7.6134     0.0000    24.0000 </r>
       <r>    -7.5658     0.0000    25.0000 </r>
       <r>    -7.5182     0.0000    26.0000 </r>
       <r>    -7.4706     0.0000    26.0000 </r>
       <r>    -7.4230     0.0000    27.0000 </r>
       <r>    -7.3754     0.0000    29.0000 </r>
       <r>    -7.3279     0.0000    31.0000 </r>
       <r>    -7.2803     0.0000    33.0000 </r>
       <r>    -7.2327     0.0000    34.0000 </r>
       <r>    -7.1851     0.0000    36.0000 </r>
       <r>    -7.1375     0.0000    39.0000 </r>
       <r>    -7.0899     0.0000    40.0000 </r>
       <r>    -7.0423     0.0000    43.0000 </r>
       <r>    -6.9947     0.0000    45.0000 </r>
       <r>    -6.9471    17.9295    47.8533 </r>
       <r>    -6.8995     0.0000    51.0000 </r>
       <r>    -6.8519     0.0000    53.0000 </r>
       <r>    -6.8043     0.0000    53.0000 </r>
       <r>    -6.7567     0.0000    56.0000 </r>
       <r>    -6.7091     0.0000    58.0000 </r>
       <r>    -6.6615     0.0000    63.0000 </r>
       <r>    -6.6139     0.0000    64.0000 </r>
       <r>    -6.5664     0.0000    66.0000 </r>
       <r>    -6.5188     0.0000    66.0000 </r>
       <r>    -6.4712     0.0000    67.0000 </r>
       <r>    -6.4236     0.0000    69.0000 </r>
       <r>    -6.3760     0.0000    71.0000 </r>
       <r>    -6.3284     0.0000    76.0000 </r>
       <r>    -6.2808     0.0000    77.0000 </r>
       <r>    -6.2332     0.0000    80.0000 </r>
       <r>    -6.1856     0.0000    82.0000 </r>
       <r>    -6.1380     0.0000    86.0000 </r>
       <r>    -6.0904     0.0000    88.0000 </r>
       <r>    -6.0428     0.0000    91.0000 </r>
[...]
        <r>  0.0000  0.0000  0.0000  0.0000  0.0000  0.0000  0.0000  0.0000  0.0000 </r>
        <r>  0.0000  0.0000  0.0000  0.0000  0.0000  0.0000  0.0000  0.0000  0.0000 </r>
        <r>  0.0000  0.0001  0.0000  0.0000  0.0000  0.0000  0.0000  0.0000  0.0000 </r>
        <r>  0.0004  0.0002  0.0000  0.0000  0.0000  0.0001  0.0000  0.0000  0.0000 </r>
        <r>  0.0005  0.0000  0.0001  0.0003  0.0000  0.0000  0.0000  0.0000  0.0000 </r>
        <r>  0.0001  0.0001  0.0000  0.0000  0.0000  0.0000  0.0001  0.0000  0.0001 </r>
        <r>  0.0009  0.0000  0.0000  0.0000  0.0000  0.0000  0.0000  0.0000  0.0000 </r>
        <r>  0.0003  0.0000  0.0001  0.0000  0.0000  0.0000  0.0000  0.0001  0.0000 </r>
        <r>  0.0000  0.0001  0.0002  0.0000  0.0000  0.0000  0.0001  0.0000  0.0000 </r>
        <r>  0.0000  0.0000  0.0001  0.0001  0.0000  0.0000  0.0001  0.0002  0.0000 </r>
        <r>  0.0000  0.0000  0.0000  0.0003  0.0000  0.0000  0.0001  0.0000  0.0000 </r>
        <r>  0.0000  0.0000  0.0000  0.0000  0.0001  0.0001  0.0000  0.0000  0.0000 </r>
       </set>
       <set comment="band 239">
        <r>  0.0000  0.0001  0.0000  0.0001  0.0000  0.0000  0.0000  0.0000  0.0000 </r>
        <r>  0.0000  0.0000  0.0000  0.0005  0.0000  0.0000  0.0000  0.0000  0.0000 </r>
        <r>  0.0000  0.0000  0.0000  0.0000  0.0000  0.0000  0.0000  0.0000  0.0000 </r>
        <r>  0.0003  0.0000  0.0000  0.0002  0.0001  0.0000  0.0000  0.0000  0.0001 </r>
        <r>  0.0000  0.0000  0.0000  0.0001  0.0001  0.0000  0.0000  0.0001  0.0000 </r>
        <r>  0.0001  0.0000  0.0001  0.0001  0.0000  0.0000  0.0000  0.0001  0.0000 </r>
        <r>  0.0001  0.0002  0.0000  0.0000  0.0000  0.0000  0.0000  0.0001  0.0001 </r>
        <r>  0.0002  0.0001  0.0000  0.0000  0.0000  0.0000  0.0000  0.0000  0.0001 </r>
        <r>  0.0001  0.0000  0.0001  0.0000  0.0000  0.0000  0.0000  0.0001  0.0000 </r>
        <r>  0.0001  0.0000  0.0000  0.0000  0.0000  0.0000  0.0000  0.0000  0.0000 </r>
        <r>  0.0005  0.0000  0.0001  0.0001  0.0000  0.0000  0.0000  0.0000  0.0000 </r>
        <r>  0.0009  0.0000  0.0002  0.0000  0.0001  0.0000  0.0000  0.0000  0.0000 </r>
        <r>  0.0002  0.0000  0.0000  0.0000  0.0000  0.0000  0.0000  0.0000  0.0000 </r>
        <r>  0.0003  0.0000  0.0000  0.0000  0.0000  0.0000  0.0000  0.0000  0.0000 </r>
        <r>  0.0000  0.0000  0.0003  0.0000  0.0002  0.0000  0.0000  0.0000  0.0000 </r>
        <r>  0.0000  0.0000  0.0003  0.0000  0.0001  0.0000  0.0000  0.0000  0.0000 </r>
        <r>  0.0000  0.0000  0.0001  0.0000  0.0000  0.0000  0.0001  0.0000  0.0000 </r>
        <r>  0.0000  0.0000  0.0002  0.0000  0.0001  0.0000  0.0001  0.0000  0.0000 </r>
        <r>  0.0006  0.0000  0.0001  0.0000  0.0000  0.0000  0.0000  0.0001  0.0000 </r>
        <r>  0.0005  0.0001  0.0001  0.0000  0.0000  0.0000  0.0000  0.0001  0.0000 </r>
        <r>  0.0006  0.0001  0.0001  0.0000  0.0000  0.0000  0.0000  0.0000  0.0001 </r>
        <r>  0.0004  0.0000  0.0000  0.0000  0.0000  0.0000  0.0000  0.0000  0.0001 </r>
        <r>  0.0001  0.0000  0.0000  0.0000  0.0000  0.0000  0.0000  0.0000  0.0000 </r>
        <r>  0.0009  0.0002  0.0000  0.0000  0.0000  0.0001  0.0001  0.0000  0.0001 </r>
        <r>  0.0002  0.0000  0.0000  0.0001  0.0000  0.0001  0.0000  0.0000  0.0002 </r>
        <r>  0.0001  0.0000  0.0000  0.0002  0.0000  0.0000  0.0000  0.0002  0.0000 </r>
        <r>  0.0000  0.0001  0.0000  0.0001  0.0001  0.0000  0.0000  0.0000  0.0000 </r>
        <r>  0.0000  0.0000  0.0000  0.0001  0.0000  0.0001  0.0000  0.0000  0.0000 </r>
        <r>  0.0000  0.0001  0.0000  0.0001  0.0001  0.0000  0.0001  0.0000  0.0000 </r>
        <r>  0.0000  0.0000  0.0000  0.0000  0.0000  0.0000  0.0000  0.0000  0.0000 </r>
       </set>
       <set comment="band 240">
        <r>  0.0000  0.0002  0.0000  0.0000  0.0000  0.0000  0.0000  0.0000  0.0001 </r>
        <r>  0.0007  0.0001  0.0000  0.0000  0.0000  0.0000  0.0001  0.0000  0.0000 </r>
        <r>  0.0001  0.0002  0.0000  0.0000  0.0000  0.0000  0.0001  0.0000  0.0000 </r>
        <r>  0.0001  0.0001  0.0000  0.0000  0.0000  0.0000  0.0000  0.0000  0.0000 </r>
        <r>  0.0000  0.0000  0.0000  0.0000  0.0000  0.0000  0.0000  0.0000  0.0000 </r>
        <r>  0.0000  0.0003  0.0000  0.0000  0.0000  0.0000  0.0000  0.0000  0.0000 </r>
        <r>  0.0000  0.0001  0.0000  0.0000  0.0001  0.0001  0.0000  0.0000  0.0000 </r>
        <r>  0.0004  0.0001  0.0002  0.0001  0.0001  0.0000  0.0000  0.0000  0.0000 </r>
        <r>  0.0001  0.0003  0.0000  0.0000  0.0000  0.0000  0.0000  0.0000  0.0000 </r>
        <r>  0.0001  0.0001  0.0002  0.0000  0.0000  0.0000  0.0001  0.0000  0.0001 </r>
        <r>  0.0009  0.0002  0.0000  0.0001  0.0002  0.0000  0.0000  0.0001  0.0000 </r>
        <r>  0.0004  0.0001  0.0000  0.0000  0.0001  0.0001  0.0000  0.0000  0.0000 </r>
        <r>  0.0002  0.0003  0.0000  0.0000  0.0000  0.0000  0.0000  0.0000  0.0000 </r>
        <r>  0.0002  0.0002  0.0001  0.0000  0.0001  0.0000  0.0000  0.0000  0.0000 </r>
        <r>  0.0001  0.0000  0.0000  0.0000  0.0000  0.0000  0.0000  0.0000  0.0000 </r>
        <r>  0.0003  0.0000  0.0001  0.0000  0.0000  0.0000  0.0001  0.0000  0.0000 </r>
        <r>  0.0001  0.0004  0.0004  0.0002  0.0001  0.0000  0.0000  0.0000  0.0001 </r>
        <r>  0.0001  0.0000  0.0000  0.0000  0.0001  0.0000  0.0000  0.0000  0.0000 </r>
        <r>  0.0000  0.0003  0.0000  0.0000  0.0001  0.0000  0.0000  0.0001  0.0000 </r>
        <r>  0.0001  0.0002  0.0000  0.0002  0.0000  0.0001  0.0000  0.0000  0.0000 </r>
        <r>  0.0002  0.0002  0.0000  0.0001  0.0001  0.0000  0.0000  0.0000  0.0000 </r>
        <r>  0.0000  0.0002  0.0001  0.0001  0.0001  0.0001  0.0000  0.0000  0.0000 </r>
        <r>  0.0000  0.0002  0.0000  0.0000  0.0000  0.0001  0.0000  0.0000  0.0000 </r>
        <r>  0.0001  0.0001  0.0000  0.0001  0.0000  0.0000  0.0000  0.0001  0.0000 </r>
        <r>  0.0001  0.0002  0.0004  0.0003  0.0000  0.0001  0.0000  0.0001  0.0000 </r>
        <r>  0.0000  0.0000  0.0000  0.0000  0.0000  0.0001  0.0001  0.0000  0.0000 </r>
        <r>  0.0001  0.0005  0.0000  0.0002  0.0000  0.0001  0.0001  0.0000  0.0001 </r>
        <r>  0.0000  0.0003  0.0000  0.0002  0.0001  0.0000  0.0000  0.0001  0.0000 </r>
        <r>  0.0001  0.0000  0.0004  0.0003  0.0000  0.0000  0.0001  0.0000  0.0000 </r>
        <r>  0.0000  0.0000  0.0008  0.0001  0.0000  0.0000  0.0000  0.0000  0.0000 </r>
       </set>
       <set comment="band 241">
        <r>  0.0000  0.0000  0.0000  0.0000  0.0000  0.0000  0.0000  0.0000  0.0000 </r>
        <r>  0.0003  0.0000  0.0003  0.0000  0.0000  0.0000  0.0000  0.0000  0.0000 </r>
        <r>  0.0001  0.0000  0.0000  0.0001  0.0000  0.0000  0.0000  0.0000  0.0000 </r>
        <r>  0.0000  0.0001  0.0000  0.0002  0.0000  0.0000  0.0000  0.0000  0.0000 </r>
        <r>  0.0000  0.0000  0.0000  0.0000  0.0000  0.0000  0.0000  0.0000  0.0000 </r>
        <r>  0.0001  0.0000  0.0000  0.0000  0.0001  0.0000  0.0000  0.0000  0.0000 </r>
        <r>  0.0000  0.0000  0.0000  0.0000  0.0000  0.0000  0.0000  0.0000  0.0000 </r>
        <r>  0.0001  0.0002  0.0003  0.0001  0.0000  0.0001  0.0000  0.0000  0.0000 </r>
        <r>  0.0004  0.0000  0.0000  0.0000  0.0000  0.0000  0.0000  0.0000  0.0000 </r>
        <r>  0.0002  0.0000  0.0001  0.0000  0.0000  0.0000  0.0000  0.0000  0.0000 </r>
        <r>  0.0000  0.0000  0.0000  0.0001  0.0000  0.0000  0.0000  0.0000  0.0000 </r>
        <r>  0.0003  0.0001  0.0001  0.0002  0.0000  0.0000  0.0001  0.0001  0.0000 </r>
        <r>  0.0002  0.0000  0.0001  0.0000  0.0000  0.0000  0.0000  0.0000  0.0000 </r>
        <r>  0.0001  0.0000  0.0000  0.0000  0.0000  0.0000  0.0000  0.0000  0.0000 </r>
        <r>  0.0000  0.0000  0.0000  0.0000  0.0000  0.0001  0.0001  0.0000  0.0000 </r>
        <r>  0.0000  0.0000  0.0000  0.0001  0.0000  0.0000  0.0000  0.0000  0.0000 </r>
        <r>  0.0000  0.0000  0.0002  0.0000  0.0000  0.0000  0.0000  0.0000  0.0000 </r>
        <r>  0.0000  0.0001  0.0001  0.0000  0.0000  0.0001  0.0000  0.0000  0.0000 </r>
        <r>  0.0000  0.0001  0.0000  0.0002  0.0000  0.0001  0.0000  0.0000  0.0000 </r>
        <r>  0.0000  0.0002  0.0000  0.0000  0.0002  0.0000  0.0000  0.0000  0.0000 </r>
        <r>  0.0005  0.0000  0.0000  0.0001  0.0000  0.0000  0.0001  0.0000  0.0000 </r>
        <r>  0.0002  0.0000  0.0000  0.0000  0.0000  0.0000  0.0000  0.0000  0.0000 </r>
        <r>  0.0001  0.0000  0.0001  0.0000  0.0000  0.0000  0.0001  0.0001  0.0000 </r>
        <r>  0.0000  0.0000  0.0003  0.0000  0.0000  0.0001  0.0000  0.0000  0.0000 </r>
        <r>  0.0003  0.0004  0.0002  0.0001  0.0000  0.0000  0.0000  0.0000  0.0000 </r>
        <r>  0.0000  0.0000  0.0000  0.0000  0.0000  0.0000  0.0001  0.0000  0.0000 </r>
        <r>  0.0000  0.0001  0.0002  0.0004  0.0001  0.0000  0.0000  0.0000  0.0000 </r>
        <r>  0.0002  0.0000  0.0006  0.0004  0.0000  0.0001  0.0000  0.0000  0.0000 </r>
        <r>  0.0000  0.0001  0.0001  0.0004  0.0000  0.0000  0.0000  0.0000  0.0000 </r>
        <r>  0.0000  0.0000  0.0002  0.0002  0.0000  0.0000  0.0000  0.0000  0.0000 </r>
       </set>
       <set comment="band 242">
        <r>  0.0000  0.0000  0.0000  0.0000  0.0000  0.0000  0.0000  0.0001  0.0000 </r>
        <r>  0.0002  0.0000  0.0001  0.0000  0.0000  0.0000  0.0000  0.0000  0.0001 </r>
        <r>  0.0000  0.0001  0.0000  0.0000  0.0001  0.0000  0.0000  0.0000  0.0000 </r>
        <r>  0.0000  0.0001  0.0000  0.0000  0.0000  0.0000  0.0000  0.0000  0.0000 </r>
        <r>  0.0000  0.0001  0.0000  0.0000  0.0000  0.0001  0.0001  0.0000  0.0000 </r>
        <r>  0.0002  0.0000  0.0000  0.0000  0.0000  0.0000  0.0000  0.0000  0.0000 </r>
        <r>  0.0002  0.0000  0.0000  0.0001  0.0000  0.0000  0.0000  0.0000  0.0000 </r>
        <r>  0.0002  0.0000  0.0000  0.0000  0.0000  0.0000  0.0000  0.0000  0.0000 </r>
        <r>  0.0005  0.0001  0.0001  0.0000  0.0000  0.0001  0.0000  0.0000  0.0000 </r>
        <r>  0.0002  0.0001  0.0003  0.0000  0.0000  0.0001  0.0000  0.0000  0.0001 </r>
        <r>  0.0001  0.0000  0.0000  0.0000  0.0000  0.0000  0.0000  0.0000  0.0000 </r>
        <r>  0.0007  0.0000  0.0001  0.0002  0.0000  0.0000  0.0000  0.0000  0.0000 </r>
        <r>  0.0001  0.0001  0.0003  0.0003  0.0000  0.0001  0.0001  0.0000  0.0000 </r>
        <r>  0.0000  0.0000  0.0000  0.0001  0.0000  0.0000  0.0000  0.0001  0.0000 </r>
        <r>  0.0001  0.0000  0.0000  0.0000  0.0000  0.0000  0.0001  0.0000  0.0000 </r>
        <r>  0.0000  0.0000  0.0001  0.0001  0.0000  0.0001  0.0000  0.0000  0.0001 </r>
        <r>  0.0002  0.0001  0.0000  0.0000  0.0000  0.0001  0.0000  0.0000  0.0000 </r>
        <r>  0.0003  0.0000  0.0003  0.0005  0.0000  0.0000  0.0000  0.0000  0.0001 </r>
        <r>  0.0000  0.0000  0.0000  0.0001  0.0000  0.0001  0.0000  0.0000  0.0000 </r>
        <r>  0.0001  0.0000  0.0000  0.0000  0.0001  0.0000  0.0000  0.0000  0.0000 </r>
        <r>  0.0001  0.0001  0.0001  0.0000  0.0001  0.0000  0.0000  0.0000  0.0000 </r>
        <r>  0.0006  0.0001  0.0000  0.0002  0.0001  0.0000  0.0000  0.0000  0.0000 </r>
        <r>  0.0001  0.0001  0.0001  0.0000  0.0000  0.0002  0.0000  0.0001  0.0000 </r>
        <r>  0.0002  0.0003  0.0006  0.0000  0.0000  0.0000  0.0000  0.0000  0.0001 </r>
        <r>  0.0000  0.0000  0.0000  0.0000  0.0000  0.0001  0.0000  0.0000  0.0000 </r>
        <r>  0.0000  0.0001  0.0002  0.0000  0.0000  0.0000  0.0001  0.0000  0.0001 </r>
        <r>  0.0002  0.0002  0.0000  0.0003  0.0001  0.0000  0.0000  0.0000  0.0000 </r>
        <r>  0.0000  0.0000  0.0008  0.0000  0.0001  0.0000  0.0000  0.0000  0.0000 </r>
        <r>  0.0000  0.0001  0.0000  0.0000  0.0001  0.0001  0.0000  0.0000  0.0000 </r>
        <r>  0.0002  0.0001  0.0003  0.0002  0.0000  0.0000  0.0000  0.0000  0.0000 </r>
       </set>
       <set comment="band 243">
        <r>  0.0000  0.0001  0.0000  0.0000  0.0000  0.0000  0.0000  0.0000  0.0000 </r>
        <r>  0.0002  0.0000  0.0000  0.0000  0.0000  0.0000  0.0000  0.0001  0.0000 </r>
        <r>  0.0001  0.0000  0.0002  0.0003  0.0000  0.0000  0.0000  0.0001  0.0000 </r>
        <r>  0.0001  0.0000  0.0001  0.0000  0.0000  0.0001  0.0000  0.0000  0.0000 </r>
        <r>  0.0000  0.0000  0.0001  0.0001  0.0000  0.0000  0.0000  0.0001  0.0000 </r>
        <r>  0.0001  0.0004  0.0000  0.0001  0.0000  0.0000  0.0000  0.0000  0.0000 </r>
        <r>  0.0001  0.0004  0.0000  0.0000  0.0000  0.0000  0.0001  0.0000  0.0000 </r>
        <r>  0.0000  0.0000  0.0000  0.0000  0.0000  0.0000  0.0000  0.0000  0.0000 </r>
        <r>  0.0000  0.0001  0.0001  0.0000  0.0000  0.0000  0.0000  0.0000  0.0000 </r>
        <r>  0.0000  0.0000  0.0000  0.0000  0.0000  0.0000  0.0000  0.0000  0.0000 </r>
        <r>  0.0000  0.0000  0.0000  0.0000  0.0000  0.0000  0.0001  0.0000  0.0000 </r>
        <r>  0.0000  0.0000  0.0000  0.0001  0.0000  0.0000  0.0000  0.0001  0.0000 </r>
        <r>  0.0008  0.0000  0.0003  0.0000  0.0000  0.0001  0.0000  0.0000  0.0000 </r>
        <r>  0.0012  0.0001  0.0005  0.0002  0.0000  0.0001  0.0000  0.0000  0.0000 </r>
        <r>  0.0002  0.0002  0.0003  0.0002  0.0000  0.0001  0.0000  0.0001  0.0000 </r>
        <r>  0.0004  0.0001  0.0003  0.0002  0.0001  0.0000  0.0000  0.0001  0.0000 </r>
        <r>  0.0002  0.0000  0.0000  0.0000  0.0000  0.0000  0.0000  0.0000  0.0000 </r>
        <r>  0.0005  0.0000  0.0001  0.0001  0.0000  0.0000  0.0000  0.0001  0.0000 </r>
        <r>  0.0000  0.0001  0.0000  0.0001  0.0001  0.0000  0.0001  0.0000  0.0002 </r>
        <r>  0.0000  0.0000  0.0000  0.0000  0.0000  0.0000  0.0000  0.0000  0.0001 </r>
        <r>  0.0003  0.0002  0.0002  0.0001  0.0000  0.0000  0.0000  0.0000  0.0000 </r>
        <r>  0.0003  0.0001  0.0000  0.0001  0.0000  0.0000  0.0000  0.0000  0.0000 </r>
        <r>  0.0000  0.0000  0.0000  0.0000  0.0001  0.0000  0.0000  0.0000  0.0000 </r>
        <r>  0.0000  0.0001  0.0000  0.0000  0.0000  0.0001  0.0000  0.0001  0.0001 </r>
        <r>  0.0001  0.0000  0.0000  0.0000  0.0000  0.0000  0.0000  0.0000  0.0001 </r>
        <r>  0.0000  0.0001  0.0000  0.0001  0.0001  0.0000  0.0000  0.0000  0.0001 </r>
        <r>  0.0000  0.0000  0.0000  0.0012  0.0000  0.0000  0.0000  0.0001  0.0000 </r>
        <r>  0.0000  0.0002  0.0002  0.0003  0.0001  0.0001  0.0001  0.0000  0.0000 </r>
        <r>  0.0000  0.0009  0.0001  0.0000  0.0000  0.0000  0.0000  0.0000  0.0001 </r>
        <r>  0.0000  0.0002  0.0000  0.0003  0.0001  0.0000  0.0000  0.0001  0.0000 </r>
       </set>
       <set comment="band 244">
        <r>  0.0001  0.0000  0.0000  0.0000  0.0000  0.0000  0.0000  0.0000  0.0000 </r>
        <r>  0.0002  0.0000  0.0001  0.0000  0.0000  0.0000  0.0000  0.0000  0.0000 </r>
        <r>  0.0000  0.0000  0.0000  0.0001  0.0000  0.0000  0.0000  0.0000  0.0000 </r>
        <r>  0.0000  0.0000  0.0000  0.0000  0.0000  0.0000  0.0000  0.0001  0.0001 </r>
        <r>  0.0000  0.0000  0.0000  0.0000  0.0000  0.0000  0.0000  0.0000  0.0000 </r>
        <r>  0.0006  0.0000  0.0000  0.0004  0.0001  0.0000  0.0001  0.0000  0.0000 </r>
        <r>  0.0002  0.0001  0.0000  0.0005  0.0000  0.0000  0.0000  0.0000  0.0000 </r>
        <r>  0.0000  0.0000  0.0000  0.0000  0.0000  0.0000  0.0000  0.0000  0.0000 </r>
        <r>  0.0001  0.0000  0.0000  0.0000  0.0001  0.0000  0.0000  0.0000  0.0000 </r>
        <r>  0.0000  0.0000  0.0000  0.0000  0.0000  0.0000  0.0000  0.0000  0.0000 </r>
        <r>  0.0001  0.0000  0.0000  0.0000  0.0000  0.0000  0.0000  0.0001  0.0001 </r>
        <r>  0.0000  0.0000  0.0001  0.0002  0.0000  0.0000  0.0000  0.0000  0.0001 </r>
        <r>  0.0003  0.0000  0.0004  0.0001  0.0000  0.0001  0.0000  0.0000  0.0000 </r>
        <r>  0.0001  0.0000  0.0001  0.0000  0.0000  0.0000  0.0000  0.0000  0.0000 </r>
        <r>  0.0000  0.0000  0.0000  0.0000  0.0000  0.0000  0.0000  0.0000  0.0000 </r>
        <r>  0.0001  0.0000  0.0001  0.0001  0.0000  0.0000  0.0000  0.0000  0.0000 </r>
        <r>  0.0000  0.0000  0.0000  0.0000  0.0000  0.0000  0.0000  0.0000  0.0000 </r>
        <r>  0.0000  0.0000  0.0000  0.0000  0.0000  0.0000  0.0000  0.0000  0.0000 </r>
        <r>  0.0002  0.0000  0.0000  0.0000  0.0000  0.0000  0.0000  0.0000  0.0000 </r>
        <r>  0.0001  0.0000  0.0000  0.0000  0.0000  0.0000  0.0000  0.0000  0.0000 </r>
        <r>  0.0001  0.0000  0.0000  0.0000  0.0000  0.0000  0.0000  0.0000  0.0000 </r>
        <r>  0.0000  0.0000  0.0000  0.0000  0.0000  0.0001  0.0000  0.0000  0.0000 </r>
        <r>  0.0000  0.0000  0.0001  0.0001  0.0000  0.0000  0.0000  0.0000  0.0000 </r>
        <r>  0.0000  0.0000  0.0001  0.0000  0.0000  0.0000  0.0000  0.0000  0.0000 </r>
        <r>  0.0000  0.0000  0.0003  0.0000  0.0000  0.0000  0.0001  0.0000  0.0000 </r>
        <r>  0.0000  0.0000  0.0000  0.0004  0.0001  0.0000  0.0000  0.0000  0.0000 </r>
        <r>  0.0000  0.0000  0.0001  0.0000  0.0000  0.0000  0.0000  0.0001  0.0000 </r>
        <r>  0.0008  0.0001  0.0000  0.0001  0.0000  0.0000  0.0000  0.0000  0.0000 </r>
        <r>  0.0005  0.0000  0.0002  0.0000  0.0000  0.0000  0.0000  0.0000  0.0002 </r>
        <r>  0.0002  0.0000  0.0000  0.0000  0.0000  0.0000  0.0000  0.0000  0.0000 </r>
       </set>
      </set>
     </set>
    </set>
   </array>
  </projected>
 </calculation>
 <structure name="finalpos" >
  <crystal>
   <varray name="basis" >
    <v>      26.88617260       0.00000000       0.00000000 </v>
    <v>       0.00000000      26.88617260       0.00000000 </v>
    <v>       0.00000000       0.00000000      26.88617260 </v>
   </varray>
   <i name="volume">  19435.10748387 </i>
   <varray name="rec_basis" >
    <v>       0.03719384       0.00000000       0.00000000 </v>
    <v>       0.00000000       0.03719384       0.00000000 </v>
    <v>       0.00000000       0.00000000       0.03719384 </v>
   </varray>
  </crystal>
  <varray name="positions" >
   <v>       0.50000000       0.35402382       0.48319027 </v>
   <v>       0.50000000       0.52041527       0.63411110 </v>
   <v>       0.37435072       0.54184201       0.44950443 </v>
   <v>       0.62564928       0.54184201       0.44950443 </v>
   <v>       0.50000000       0.42992771       0.61712064 </v>
   <v>       0.40909789       0.61152165       0.50021567 </v>
   <v>       0.59090211       0.61152165       0.50021567 </v>
   <v>       0.42456590       0.39215828       0.45435843 </v>
   <v>       0.57543410       0.39215828       0.45435843 </v>
   <v>       0.50000000       0.42126028       0.38929855 </v>
   <v>       0.62788434       0.54033998       0.54249217 </v>
   <v>       0.37211566       0.54033998       0.54249217 </v>
   <v>       0.45339293       0.59458989       0.42087581 </v>
   <v>       0.54660707       0.59458989       0.42087581 </v>
   <v>       0.42009595       0.47845891       0.59070294 </v>
   <v>       0.57990405       0.47845891       0.59070294 </v>
   <v>       0.42415636       0.47328646       0.41726276 </v>
   <v>       0.57584364       0.47328646       0.41726276 </v>
   <v>       0.60901036       0.46245066       0.50231305 </v>
   <v>       0.39098964       0.46245066       0.50231305 </v>
   <v>       0.45189673       0.40626113       0.54197399 </v>
   <v>       0.54810327       0.40626113       0.54197399 </v>
   <v>       0.50000000       0.51809736       0.40257167 </v>
   <v>       0.45373816       0.56960128       0.57061191 </v>
   <v>       0.54626184       0.56960128       0.57061191 </v>
   <v>       0.50000000       0.61551059       0.49907143 </v>
   <v>       0.50000000       0.48868145       0.55141793 </v>
   <v>       0.45363143       0.53183612       0.48572202 </v>
   <v>       0.54636857       0.53183612       0.48572202 </v>
   <v>       0.50000000       0.44739081       0.47115204 </v>
  </varray>
 </structure>
</modeling>
