unknown system                          
           1
    26.886173    0.000000    0.000000
     0.000000   26.886173    0.000000
     0.000000    0.000000   26.886173
   Cu
  30
Direct configuration=     1
   0.50000000  0.35398398  0.48326133
   0.50000000  0.52040377  0.63411157
   0.37435789  0.54184019  0.44949545
   0.62564211  0.54184019  0.44949545
   0.50000000  0.42991953  0.61711813
   0.40909445  0.61152387  0.50022068
   0.59090555  0.61152387  0.50022068
   0.42458291  0.39214900  0.45436215
   0.57541709  0.39214900  0.45436215
   0.50000000  0.42131355  0.38924624
   0.62786919  0.54033593  0.54248479
   0.37213081  0.54033593  0.54248479
   0.45339126  0.59462010  0.42088447
   0.54660874  0.59462010  0.42088447
   0.42010456  0.47846819  0.59071235
   0.57989544  0.47846819  0.59071235
   0.42417013  0.47327384  0.41726838
   0.57582987  0.47327384  0.41726838
   0.60898544  0.46244182  0.50230320
   0.39101456  0.46244182  0.50230320
   0.45188602  0.40625578  0.54198584
   0.54811398  0.40625578  0.54198584
   0.50000000  0.51812819  0.40256717
   0.45374050  0.56960513  0.57061549
   0.54625950  0.56960513  0.57061549
   0.50000000  0.61550221  0.49908298
   0.50000000  0.48868115  0.55138054
   0.45363367  0.53183773  0.48571079
   0.54636633  0.53183773  0.48571079
   0.50000000  0.44736444  0.47114486
Direct configuration=     2
   0.50000000  0.35402021  0.48319671
   0.50000000  0.52041423  0.63411114
   0.37435137  0.54184184  0.44950362
   0.62564863  0.54184184  0.44950362
   0.50000000  0.42992697  0.61712041
   0.40909758  0.61152185  0.50021612
   0.59090242  0.61152185  0.50021612
   0.42456745  0.39215744  0.45435877
   0.57543255  0.39215744  0.45435877
   0.50000000  0.42126511  0.38929381
   0.62788297  0.54033961  0.54249150
   0.37211703  0.54033961  0.54249150
   0.45339278  0.59459262  0.42087659
   0.54660722  0.59459262  0.42087659
   0.42009673  0.47845975  0.59070379
   0.57990327  0.47845975  0.59070379
   0.42415760  0.47328531  0.41726327
   0.57584240  0.47328531  0.41726327
   0.60900810  0.46244986  0.50231216
   0.39099190  0.46244986  0.50231216
   0.45189576  0.40626064  0.54197506
   0.54810424  0.40626064  0.54197506
   0.50000000  0.51810016  0.40257126
   0.45373837  0.56960163  0.57061224
   0.54626163  0.56960163  0.57061224
   0.50000000  0.61550983  0.49907248
   0.50000000  0.48868142  0.55141454
   0.45363163  0.53183627  0.48572100
   0.54636837  0.53183627  0.48572100
   0.50000000  0.44738842  0.47115139
Direct configuration=     3
   0.50000000  0.35402382  0.48319027
   0.50000000  0.52041527  0.63411110
   0.37435072  0.54184201  0.44950443
   0.62564928  0.54184201  0.44950443
   0.50000000  0.42992771  0.61712064
   0.40909789  0.61152165  0.50021567
   0.59090211  0.61152165  0.50021567
   0.42456590  0.39215828  0.45435843
   0.57543410  0.39215828  0.45435843
   0.50000000  0.42126028  0.38929855
   0.62788434  0.54033998  0.54249217
   0.37211566  0.54033998  0.54249217
   0.45339293  0.59458989  0.42087581
   0.54660707  0.59458989  0.42087581
   0.42009595  0.47845891  0.59070294
   0.57990405  0.47845891  0.59070294
   0.42415636  0.47328646  0.41726276
   0.57584364  0.47328646  0.41726276
   0.60901036  0.46245066  0.50231305
   0.39098964  0.46245066  0.50231305
   0.45189673  0.40626113  0.54197399
   0.54810327  0.40626113  0.54197399
   0.50000000  0.51809736  0.40257167
   0.45373816  0.56960128  0.57061191
   0.54626184  0.56960128  0.57061191
   0.50000000  0.61551059  0.49907143
   0.50000000  0.48868145  0.55141793
   0.45363143  0.53183612  0.48572202
   0.54636857  0.53183612  0.48572202
   0.50000000  0.44739081  0.47115204
