 vasp.5.4.1 05Feb16 (build Nov 14 2017 18:17:46) gamma-only                     
  
 executed on           IFC91_ompi date 2020.08.09  05:07:52
 running on   32 total cores
 distrk:  each k-point on   32 cores,    1 groups
 distr:  one band on NCORES_PER_BAND=   8 cores,    4 groups


--------------------------------------------------------------------------------------------------------


 INCAR:
 POTCAR:    PAW_PBE Cu 22Jun2005                  
 POTCAR:    PAW_PBE Cu 22Jun2005                  
   VRHFIN =Cu: d10 p1                                                           
   LEXCH  = PE                                                                  
   EATOM  =  1390.9808 eV,  102.2342 Ry                                         
                                                                                
   TITEL  = PAW_PBE Cu 22Jun2005                                                
   LULTRA =        F    use ultrasoft PP ?                                      
   IUNSCR =        1    unscreen: 0-lin 1-nonlin 2-no                           
   RPACOR =    2.000    partial core radius                                     
   POMASS =   63.546; ZVAL   =   11.000    mass and valenz                      
   RCORE  =    2.300    outmost cutoff radius                                   
   RWIGS  =    2.200; RWIGS  =    1.164    wigner-seitz radius (au A)           
   ENMAX  =  295.446; ENMIN  =  221.585 eV                                      
   ICORE  =        3    local potential                                         
   LCOR   =        T    correct aug charges                                     
   LPAW   =        T    paw PP                                                  
   EAUG   =  586.980                                                            
   DEXC   =    0.000                                                            
   RMAX   =    2.344    core radius for proj-oper                               
   RAUG   =    1.300    factor for augmentation sphere                          
   RDEP   =    2.302    radius for radial grids                                 
   RDEPT  =    1.771    core radius for aug-charge                              
                                                                                
   Atomic configuration                                                         
    9 entries                                                                   
     n  l   j            E        occ.                                          
     1  0  0.50     -8850.2468   2.0000                                         
     2  0  0.50     -1062.3498   2.0000                                         
     2  1  1.50      -916.8226   6.0000                                         
     3  0  0.50      -114.6929   2.0000                                         
     3  1  1.50       -72.1325   6.0000                                         
     3  2  2.50        -5.0394  10.0000                                         
     4  0  0.50        -4.6097   1.0000                                         
     4  1  0.50        -4.0817   0.0000                                         
     4  3  2.50        -1.3606   0.0000                                         
   Description                                                                  
     l       E           TYP  RCUT    TYP  RCUT                                 
     2     -5.0393973     23  2.200                                             
     2     10.8846608     23  2.200                                             
     0     -4.6097109     23  2.200                                             
     0      8.2520465     23  2.200                                             
     1     -2.7211652     23  2.200                                             
     1     21.7055443     23  2.200                                             
     3      2.7211652     23  2.300                                             
  local pseudopotential read in
  partial core-charges read in
  partial kinetic energy density read in
  atomic valenz-charges read in
  non local Contribution for L=           2  read in
    real space projection operators read in
  non local Contribution for L=           2  read in
    real space projection operators read in
  non local Contribution for L=           0  read in
    real space projection operators read in
  non local Contribution for L=           0  read in
    real space projection operators read in
  non local Contribution for L=           1  read in
    real space projection operators read in
  non local Contribution for L=           1  read in
    real space projection operators read in
    PAW grid and wavefunctions read in
 
   number of l-projection  operators is LMAX  =           6
   number of lm-projection operators is LMMAX =          18
 

 ----------------------------------------------------------------------------- 
|                                                                             |
|  ADVICE TO THIS USER RUNNING 'VASP/VAMP'   (HEAR YOUR MASTER'S VOICE ...):  |
|                                                                             |
|      You have a (more or less) 'large supercell' and for larger cells       |
|      it might be more efficient to use real space projection opertators     |
|      So try LREAL= Auto  in the INCAR   file.                               |
|      Mind: At the moment your POTCAR file does not contain real space       |
|       projectors, and has to be modified,  BUT if you                       |
|      want to do an extremely  accurate calculation you might also keep the  |
|      reciprocal projection scheme          (i.e. LREAL=.FALSE.)             |
|                                                                             |
 ----------------------------------------------------------------------------- 

  PAW_PBE Cu 22Jun2005                  :
 energy of atom  1       EATOM=-1390.9808
 kinetic energy error for atom=    0.0452 (will be added to EATOM!!)
 
 
 POSCAR: Cu-30-1 <s> Cu </s>                     
  positions in direct lattice
  velocities in cartesian coordinates
 exchange correlation table for  LEXCH =        8
   RHO(1)=    0.500       N(1)  =     2000
   RHO(2)=  100.500       N(2)  =     4000
 


--------------------------------------------------------------------------------------------------------


 ion  position               nearest neighbor table
   1  0.500  0.354  0.483-   8 2.40   9 2.40  21 2.48  22 2.48  30 2.53
   2  0.500  0.520  0.634-  27 2.38   5 2.48  24 2.49  25 2.49  16 2.69  15 2.69
   3  0.374  0.542  0.449-  28 2.36  17 2.44   6 2.50  12 2.50  20 2.60  13 2.67
   4  0.626  0.542  0.449-  29 2.36  18 2.44   7 2.50  11 2.50  19 2.60  14 2.67
   5  0.500  0.430  0.617-  27 2.37   2 2.48  22 2.48  21 2.48  16 2.61  15 2.61
   6  0.409  0.612  0.500-  12 2.44  26 2.45  13 2.48  28 2.49   3 2.50  24 2.51
   7  0.591  0.612  0.500-  11 2.44  26 2.45  14 2.48  29 2.49   4 2.50  25 2.51
   8  0.425  0.392  0.454-  17 2.40   1 2.40  20 2.46  21 2.50  30 2.55  10 2.79
   9  0.575  0.392  0.454-  18 2.40   1 2.40  19 2.46  22 2.50  30 2.55  10 2.79
  10  0.500  0.421  0.389-  30 2.31  18 2.58  17 2.58  23 2.63   9 2.79   8 2.79
  11  0.628  0.540  0.542-  19 2.41   7 2.44  25 2.45  16 2.47   4 2.50  29 2.68
  12  0.372  0.540  0.542-  20 2.41   6 2.44  24 2.45  15 2.47   3 2.50  28 2.68
  13  0.453  0.595  0.421-  28 2.43  23 2.46   6 2.48  14 2.51  26 2.51   3 2.67
  14  0.547  0.595  0.421-  29 2.43  23 2.46   7 2.48  13 2.51  26 2.51   4 2.67
  15  0.420  0.478  0.591-  27 2.41  12 2.47  21 2.49  20 2.54   5 2.61  24 2.67   2 2.69
  16  0.580  0.478  0.591-  27 2.41  11 2.47  22 2.49  19 2.54   5 2.61  25 2.67   2 2.69
  17  0.424  0.473  0.417-   8 2.40  23 2.40   3 2.44  20 2.47  28 2.55  10 2.58  30 2.60
  18  0.576  0.473  0.417-   9 2.40  23 2.40   4 2.44  19 2.47  29 2.55  10 2.58  30 2.60
  19  0.609  0.462  0.502-  11 2.41   9 2.46  22 2.47  18 2.47  16 2.54  29 2.55   4 2.60
  20  0.391  0.462  0.502-  12 2.41   8 2.46  21 2.47  17 2.47  15 2.54  28 2.55   3 2.60
  21  0.452  0.406  0.542-  20 2.47   1 2.48   5 2.48  15 2.49   8 2.50  30 2.55  27 2.58  22 2.59

  22  0.548  0.406  0.542-  19 2.47   1 2.48   5 2.48  16 2.49   9 2.50  30 2.55  27 2.58  21 2.59

  23  0.500  0.518  0.403-  18 2.40  17 2.40  13 2.46  14 2.46  29 2.59  28 2.59  10 2.63  30 2.65

  24  0.454  0.570  0.571-  12 2.45  25 2.49   2 2.49  28 2.50   6 2.51  27 2.56  26 2.60  15 2.67

  25  0.546  0.570  0.571-  11 2.45  24 2.49   2 2.49  29 2.50   7 2.51  27 2.56  26 2.60  16 2.67

  26  0.500  0.616  0.499-   6 2.45   7 2.45  13 2.51  14 2.51  29 2.60  28 2.60  24 2.60  25 2.60

  27  0.500  0.489  0.551-   5 2.37   2 2.38  16 2.41  15 2.41  30 2.43  29 2.45  28 2.45  24 2.56
                            25 2.56  22 2.58  21 2.58
  28  0.454  0.532  0.486-   3 2.36  13 2.43  27 2.45   6 2.49  29 2.49  24 2.50  17 2.55  20 2.55
                            23 2.59  26 2.60  30 2.62  12 2.68
  29  0.546  0.532  0.486-   4 2.36  14 2.43  27 2.45   7 2.49  28 2.49  25 2.50  18 2.55  19 2.55
                            23 2.59  26 2.60  30 2.62  11 2.68
  30  0.500  0.447  0.471-  10 2.31  27 2.43   1 2.53   9 2.55   8 2.55  22 2.55  21 2.55  18 2.60
                            17 2.60  28 2.62  29 2.62  23 2.65
 
  LATTYP: Found a simple cubic cell.
 ALAT       =    26.8861725962
  
  Lattice vectors:
  
 A1 = (  26.8861725962,   0.0000000000,   0.0000000000)
 A2 = (   0.0000000000,  26.8861725962,   0.0000000000)
 A3 = (   0.0000000000,   0.0000000000,  26.8861725962)


Analysis of symmetry for initial positions (statically):
=====================================================================
 Subroutine PRICEL returns:
 Original cell was already a primitive cell.
 

 Routine SETGRP: Setting up the symmetry group for a 
 simple cubic supercell.


 Subroutine GETGRP returns: Found  2 space group operations
 (whereof  2 operations were pure point group operations)
 out of a pool of 48 trial point group operations.


The static configuration has the point symmetry C_1h.


Analysis of symmetry for dynamics (positions and initial velocities):
=====================================================================
 Subroutine PRICEL returns:
 Original cell was already a primitive cell.
 

 Routine SETGRP: Setting up the symmetry group for a 
 simple cubic supercell.


 Subroutine GETGRP returns: Found  2 space group operations
 (whereof  2 operations were pure point group operations)
 out of a pool of 48 trial point group operations.


The dynamic configuration has the point symmetry C_1h.


Analysis of structural, dynamic, and magnetic symmetry:
=====================================================================
 Subroutine PRICEL returns:
 Original cell was already a primitive cell.
 

 Routine SETGRP: Setting up the symmetry group for a 
 simple cubic supercell.


 Subroutine GETGRP returns: Found  2 space group operations
 (whereof  2 operations were pure point group operations)
 out of a pool of 48 trial point group operations.


The magnetic configuration has the point symmetry C_1h.


 Subroutine INISYM returns: Found  2 space group operations
 (whereof  2 operations are pure point group operations),
 and found     1 'primitive' translations

 
 
 KPOINTS: Gamma-point only                        
  k-points in reciprocal lattice
Space group operators:
 irot       det(A)        alpha          n_x          n_y          n_z        tau_x        tau_y        tau_z
    1     1.000000     0.000001     1.000000     0.000000     0.000000     0.000000     0.000000     0.000000
    2    -1.000000   180.000000     1.000000     0.000000     0.000000     0.000000     0.000000     0.000000


--------------------------------------------------------------------------------------------------------




 Dimension of arrays:
   k-points           NKPTS =      1   k-points in BZ     NKDIM =      1   number of bands    NBANDS=    244
   number of dos      NEDOS =    301   number of ions     NIONS =     30
   non local maximal  LDIM  =      6   non local SUM 2l+1 LMDIM =     18
   total plane-waves  NPLWV = ******
   max r-space proj   IRMAX =      1   max aug-charges    IRDMAX=   2775
   dimension x,y,z NGX =   120 NGY =  120 NGZ =  120
   dimension x,y,z NGXF=   240 NGYF=  240 NGZF=  240
   support grid    NGXF=   240 NGYF=  240 NGZF=  240
   ions per type =              30
 NGX,Y,Z   is equivalent  to a cutoff of   7.42,  7.42,  7.42 a.u.
 NGXF,Y,Z  is equivalent  to a cutoff of  14.84, 14.84, 14.84 a.u.


 I would recommend the setting:
   dimension x,y,z NGX =   113 NGY =  113 NGZ =  113
 SYSTEM =  unknown system                          
 POSCAR =  Cu-30-1 <s> Cu </s>                     

 Startparameter for this run:
   NWRITE =      2    write-flag & timer
   PREC   = normal    normal or accurate (medium, high low for compatibility)
   ISTART =      0    job   : 0-new  1-cont  2-samecut
   ICHARG =      2    charge: 1-file 2-atom 10-const
   ISPIN  =      2    spin polarized calculation?
   LNONCOLLINEAR =      F non collinear calculations
   LSORBIT =      F    spin-orbit coupling
   INIWAV =      1    electr: 0-lowe 1-rand  2-diag
   LASPH  =      F    aspherical Exc in radial PAW
   METAGGA=      F    non-selfconsistent MetaGGA calc.

 Electronic Relaxation 1
   ENCUT  =  295.4 eV  21.71 Ry    4.66 a.u.  37.68 37.68 37.68*2*pi/ulx,y,z
   ENINI  =  295.4     initial cutoff
   ENAUG  =  587.0 eV  augmentation charge cutoff
   NELM   =     60;   NELMIN=  2; NELMDL=-12     # of ELM steps 
   EDIFF  = 0.1E-03   stopping-criterion for ELM
   LREAL  =      F    real-space projection
   NLSPLINE    = F    spline interpolate recip. space projectors
   LCOMPAT=      F    compatible to vasp.4.4
   GGA_COMPAT  = T    GGA compatible to vasp.4.4-vasp.4.6
   LMAXPAW     = -100 max onsite density
   LMAXMIX     =    2 max onsite mixed and CHGCAR
   VOSKOWN=      0    Vosko Wilk Nusair interpolation
   ROPT   =    0.00000
 Ionic relaxation
   EDIFFG = 0.1E-02   stopping-criterion for IOM
   NSW    =   1000    number of steps for IOM
   NBLOCK =      1;   KBLOCK =   1000    inner block; outer block 
   IBRION =      2    ionic relax: 0-MD 1-quasi-New 2-CG
   NFREE  =      1    steps in history (QN), initial steepest desc. (CG)
   ISIF   =      2    stress and relaxation
   IWAVPR =     11    prediction:  0-non 1-charg 2-wave 3-comb
   ISYM   =      2    0-nonsym 1-usesym 2-fastsym
   LCORR  =      T    Harris-Foulkes like correction to forces

   POTIM  = 0.5000    time-step for ionic-motion
   TEIN   =    0.0    initial temperature
   TEBEG  =    0.0;   TEEND  =   0.0 temperature during run
   SMASS  =  -3.00    Nose mass-parameter (am)
   estimated Nose-frequenzy (Omega)   =  0.10E-29 period in steps =****** mass=  -0.165E-25a.u.
   SCALEE = 1.0000    scale energy and forces
   NPACO  =    256;   APACO  = 16.0  distance and # of slots for P.C.
   PSTRESS=    0.0 pullay stress

  Mass of Ions in am
   POMASS =  63.55
  Ionic Valenz
   ZVAL   =  11.00
  Atomic Wigner-Seitz radii
   RWIGS  =  -1.00
  virtual crystal weights 
   VCA    =   1.00
   NELECT =     330.0000    total number of electrons
   NUPDOWN=      -1.0000    fix difference up-down

 DOS related values:
   EMIN   =  10.00;   EMAX   =-10.00  energy-range for DOS
   EFERMI =   0.00
   ISMEAR =     0;   SIGMA  =   0.00  broadening in eV -4-tet -1-fermi 0-gaus

 Electronic relaxation 2 (details)
   IALGO  =     48    algorithm
   LDIAG  =      T    sub-space diagonalisation (order eigenvalues)
   LSUBROT=      F    optimize rotation matrix (better conditioning)
   TURBO    =      0    0=normal 1=particle mesh
   IRESTART =      0    0=no restart 2=restart with 2 vectors
   NREBOOT  =      0    no. of reboots
   NMIN     =      0    reboot dimension
   EREF     =   0.00    reference energy to select bands
   IMIX   =      4    mixing-type and parameters
     AMIX     =   0.40;   BMIX     =  1.00
     AMIX_MAG =   1.60;   BMIX_MAG =  1.00
     AMIN     =   0.10
     WC   =   100.;   INIMIX=   1;  MIXPRE=   1;  MAXMIX= -45

 Intra band minimization:
   WEIMIN = 0.0010     energy-eigenvalue tresh-hold
   EBREAK =  0.10E-06  absolut break condition
   DEPER  =   0.30     relativ break condition  

   TIME   =   0.40     timestep for ELM

  volume/ion in A,a.u.               =     647.84      4371.82
  Fermi-wavevector in a.u.,A,eV,Ry     =   0.420776  0.795150  2.408940  0.177052
  Thomas-Fermi vector in A             =   1.383181
 
 Write flags
   LWAVE  =      F    write WAVECAR
   LCHARG =      F    write CHGCAR
   LVTOT  =      F    write LOCPOT, total local potential
   LVHAR  =      F    write LOCPOT, Hartree potential only
   LELF   =      F    write electronic localiz. function (ELF)
   LORBIT =     11    0 simple, 1 ext, 2 COOP (PROOUT)


 Dipole corrections
   LMONO  =      F    monopole corrections only (constant potential shift)
   LDIPOL =      F    correct potential (dipole corrections)
   IDIPOL =      0    1-x, 2-y, 3-z, 4-all directions 
   EPSILON=  1.0000000 bulk dielectric constant

 Exchange correlation treatment:
   GGA     =    PE    GGA type
   LEXCH   =     8    internal setting for exchange type
   VOSKOWN=      0    Vosko Wilk Nusair interpolation
   LHFCALC =     F    Hartree Fock is set to
   LHFONE  =     F    Hartree Fock one center treatment
   AEXX    =    0.0000 exact exchange contribution

 Linear response parameters
   LEPSILON=     F    determine dielectric tensor
   LRPA    =     F    only Hartree local field effects (RPA)
   LNABLA  =     F    use nabla operator in PAW spheres
   LVEL    =     F    velocity operator in full k-point grid
   LINTERFAST=   F  fast interpolation
   KINTER  =     0    interpolate to denser k-point grid
   CSHIFT  =0.1000    complex shift for real part using Kramers Kronig
   OMEGAMAX=  -1.0    maximum frequency
   DEG_THRESHOLD= 0.2000000E-02 threshold for treating states as degnerate
   RTIME   =    0.100 relaxation time in fs

 Orbital magnetization related:
   ORBITALMAG=     F  switch on orbital magnetization
   LCHIMAG   =     F  perturbation theory with respect to B field
   DQ        =  0.001000  dq finite difference perturbation B field



--------------------------------------------------------------------------------------------------------


 conjugate gradient relaxation of ions
 charge density and potential will be updated during run
 spin polarized calculation
 RMM-DIIS sequential band-by-band
 perform sub-space diagonalisation
    before iterative eigenvector-optimisation
 modified Broyden-mixing scheme, WC =      100.0
 initial mixing is a Kerker type mixing with AMIX =  0.4000 and BMIX =      1.0000
 Hartree-type preconditioning will be used
 using additional bands           79
 reciprocal scheme for non local part
 use partial core corrections
 calculate Harris-corrections to forces 
   (improved forces if not selfconsistent)
 use gradient corrections 
 use of overlap-Matrix (Vanderbilt PP)
 Gauss-broadening in eV      SIGMA  =   0.00


--------------------------------------------------------------------------------------------------------


  energy-cutoff  :      295.45
  volume of cell :    19435.11
      direct lattice vectors                 reciprocal lattice vectors
    26.886172596  0.000000000  0.000000000     0.037193840  0.000000000  0.000000000
     0.000000000 26.886172596  0.000000000     0.000000000  0.037193840  0.000000000
     0.000000000  0.000000000 26.886172596     0.000000000  0.000000000  0.037193840

  length of vectors
    26.886172596 26.886172596 26.886172596     0.037193840  0.037193840  0.037193840


 
 k-points in units of 2pi/SCALE and weight: Gamma-point only                        
   0.00000000  0.00000000  0.00000000       1.000
 
 k-points in reciprocal lattice and weights: Gamma-point only                        
   0.00000000  0.00000000  0.00000000       1.000
 
 position of ions in fractional coordinates (direct lattice) 
   0.50000000  0.35398398  0.48326133
   0.50000000  0.52040377  0.63411157
   0.37435789  0.54184019  0.44949545
   0.62564211  0.54184019  0.44949545
   0.50000000  0.42991953  0.61711813
   0.40909445  0.61152387  0.50022068
   0.59090555  0.61152387  0.50022068
   0.42458291  0.39214900  0.45436215
   0.57541709  0.39214900  0.45436215
   0.50000000  0.42131355  0.38924624
   0.62786919  0.54033593  0.54248479
   0.37213081  0.54033593  0.54248479
   0.45339126  0.59462010  0.42088447
   0.54660874  0.59462010  0.42088447
   0.42010456  0.47846819  0.59071235
   0.57989544  0.47846819  0.59071235
   0.42417013  0.47327384  0.41726838
   0.57582987  0.47327384  0.41726838
   0.60898544  0.46244182  0.50230320
   0.39101456  0.46244182  0.50230320
   0.45188602  0.40625578  0.54198584
   0.54811398  0.40625578  0.54198584
   0.50000000  0.51812819  0.40256717
   0.45374050  0.56960513  0.57061549
   0.54625950  0.56960513  0.57061549
   0.50000000  0.61550221  0.49908298
   0.50000000  0.48868115  0.55138054
   0.45363367  0.53183773  0.48571079
   0.54636633  0.53183773  0.48571079
   0.50000000  0.44736444  0.47114486
 
 position of ions in cartesian coordinates  (Angst):
  13.44308630  9.51727431 12.99304746
  13.44308630 13.99166558 17.04883314
  10.06505078 14.56800881 12.08521234
  16.82112181 14.56800881 12.08521234
  13.44308630 11.55889069 16.59194445
  10.99898393 16.44153640 13.44901952
  15.88718867 16.44153640 13.44901952
  11.41540940 10.54338570 12.21605922
  15.47076320 10.54338569 12.21605922
  13.44308630 11.32750894 10.46534154
  16.88099929 14.52756518 14.58533978
  10.00517331 14.52756518 14.58533978
  12.18995566 15.98705855 11.31597259
  14.69621694 15.98705855 11.31597259
  11.29500363 12.86417847 15.88199408
  15.59116897 12.86417847 15.88199408
  11.40431140 12.72452218 11.21874969
  15.48186120 12.72452218 11.21874969
  16.37328770 12.43329070 13.50501063
  10.51288489 12.43329071 13.50501063
  12.14948551 10.92266291 14.57192484
  14.73668709 10.92266291 14.57192484
  13.44308630 13.93048401 10.82349043
  12.19934540 15.31450173 15.34166649
  14.68682720 15.31450172 15.34166649
  13.44308630 16.54849853 13.41843106
  13.44308630 13.13876586 14.82451228
  12.19647324 14.29908112 13.05890415
  14.68969936 14.29908112 13.05890415
  13.44308630 12.02791752 12.66728190
 


--------------------------------------------------------------------------------------------------------


 use parallel FFT for wavefunctions z direction half grid
 k-point  1 :   0.0000 0.0000 0.0000  plane waves:  112012

 maximum and minimum number of plane-waves per node :     14008    13997

 maximum number of plane-waves:    112012
 maximum index in each direction: 
   IXMAX=   37   IYMAX=   37   IZMAX=   37
   IXMIN=  -37   IYMIN=  -37   IZMIN=    0

 WARNING: aliasing errors must be expected set NGX to 150 to avoid them
 WARNING: aliasing errors must be expected set NGY to 150 to avoid them
 WARNING: aliasing errors must be expected set NGZ to 150 to avoid them
 aliasing errors are usually negligible using standard VASP settings
 and one can safely disregard these warnings

 parallel 3D FFT for wavefunctions:
    minimum data exchange during FFTs selected (reduces bandwidth)
 parallel 3D FFT for charge:
    minimum data exchange during FFTs selected (reduces bandwidth)


 total amount of memory used by VASP on root node   136875. kBytes
========================================================================

   base      :      30000. kBytes
   nonl-proj :       8736. kBytes
   fftplans  :      19949. kBytes
   grid      :      50730. kBytes
   one-center:         62. kBytes
   wavefun   :      27398. kBytes
 
     INWAV:  cpu time    0.0000: real time    0.0000
 Broyden mixing: mesh for mixing (old mesh)
   NGX = 75   NGY = 75   NGZ = 75
  (NGX  =240   NGY  =240   NGZ  =240)
  gives a total of 421875 points

 initial charge density was supplied:
 charge density of overlapping atoms calculated
 number of electron     330.0000000 magnetization      90.0000000
 keeping initial charge density in first step


--------------------------------------------------------------------------------------------------------


 Maximum index for augmentation-charges          208 (set IRDMAX)


--------------------------------------------------------------------------------------------------------


 First call to EWALD:  gamma=   0.066
 Maximum number of real-space cells 3x 3x 3
 Maximum number of reciprocal cells 3x 3x 3

 FEWALD executed in parallel
    FEWALD:  cpu time    0.0040: real time    0.0022


----------------------------------------- Iteration    1(   1)  ---------------------------------------


    POTLOK:  cpu time    1.0121: real time    1.0131
    SETDIJ:  cpu time    0.0200: real time    0.0204
    EDDIAG:  cpu time    2.1121: real time    2.1141
  RMM-DIIS:  cpu time    6.8564: real time    6.8603
    ORTHCH:  cpu time    0.1760: real time    0.1763
       DOS:  cpu time    0.0000: real time    0.0003
    --------------------------------------------
      LOOP:  cpu time   10.1806: real time   10.5947

 eigenvalue-minimisations  :   488
 total energy-change (2. order) : 0.3035936E+04  (-0.4063636E+04)
 number of electron     330.0000000 magnetization      90.0000000
 augmentation part      330.0000000 magnetization      90.0000000

 Free energy of the ion-electron system (eV)
  ---------------------------------------------------
  alpha Z        PSCENC =        33.86630271
  Ewald energy   TEWEN  =    110566.07332656
  -Hartree energ DENC   =   -148526.53849099
  -exchange      EXHF   =         0.00000000
  -V(xc)+E(xc)   XCENC  =      1383.91751990
  PAW double counting   =     36816.51539408   -39986.87630570
  entropy T*S    EENTRO =        -0.00000000
  eigenvalues    EBANDS =      1020.91042134
  atomic energy  EATOM  =     41728.06753974
  Solvation  Ediel_sol  =         0.00000000
  ---------------------------------------------------
  free energy    TOTEN  =      3035.93570763 eV

  energy without entropy =     3035.93570763  energy(sigma->0) =     3035.93570763


--------------------------------------------------------------------------------------------------------




----------------------------------------- Iteration    1(   2)  ---------------------------------------


    EDDIAG:  cpu time    2.1081: real time    2.1093
  RMM-DIIS:  cpu time    7.0964: real time    7.1015
    ORTHCH:  cpu time    0.1720: real time    0.1757
       DOS:  cpu time    0.0040: real time    0.0003
    --------------------------------------------
      LOOP:  cpu time    9.3886: real time    9.3935

 eigenvalue-minimisations  :   488
 total energy-change (2. order) :-0.9815324E+03  (-0.1026006E+04)
 number of electron     330.0000000 magnetization      90.0000000
 augmentation part      330.0000000 magnetization      90.0000000

 Free energy of the ion-electron system (eV)
  ---------------------------------------------------
  alpha Z        PSCENC =        33.86630271
  Ewald energy   TEWEN  =    110566.07332656
  -Hartree energ DENC   =   -148526.53849099
  -exchange      EXHF   =         0.00000000
  -V(xc)+E(xc)   XCENC  =      1383.91751990
  PAW double counting   =     36816.51539408   -39986.87630570
  entropy T*S    EENTRO =         0.00000000
  eigenvalues    EBANDS =        39.37799395
  atomic energy  EATOM  =     41728.06753974
  Solvation  Ediel_sol  =         0.00000000
  ---------------------------------------------------
  free energy    TOTEN  =      2054.40328024 eV

  energy without entropy =     2054.40328024  energy(sigma->0) =     2054.40328024


--------------------------------------------------------------------------------------------------------




----------------------------------------- Iteration    1(   3)  ---------------------------------------


    EDDIAG:  cpu time    2.1121: real time    2.1124
  RMM-DIIS:  cpu time    7.0164: real time    7.0195
    ORTHCH:  cpu time    0.1760: real time    0.1765
       DOS:  cpu time    0.0000: real time    0.0003
    --------------------------------------------
      LOOP:  cpu time    9.3046: real time    9.3170

 eigenvalue-minimisations  :   488
 total energy-change (2. order) :-0.7407261E+03  (-0.9517434E+03)
 number of electron     330.0000000 magnetization      90.0000000
 augmentation part      330.0000000 magnetization      90.0000000

 Free energy of the ion-electron system (eV)
  ---------------------------------------------------
  alpha Z        PSCENC =        33.86630271
  Ewald energy   TEWEN  =    110566.07332656
  -Hartree energ DENC   =   -148526.53849099
  -exchange      EXHF   =         0.00000000
  -V(xc)+E(xc)   XCENC  =      1383.91751990
  PAW double counting   =     36816.51539408   -39986.87630570
  entropy T*S    EENTRO =        -0.00000000
  eigenvalues    EBANDS =      -701.34809602
  atomic energy  EATOM  =     41728.06753974
  Solvation  Ediel_sol  =         0.00000000
  ---------------------------------------------------
  free energy    TOTEN  =      1313.67719027 eV

  energy without entropy =     1313.67719027  energy(sigma->0) =     1313.67719027


--------------------------------------------------------------------------------------------------------




----------------------------------------- Iteration    1(   4)  ---------------------------------------


    EDDIAG:  cpu time    2.1041: real time    2.1080
  RMM-DIIS:  cpu time    7.2125: real time    7.2141
    ORTHCH:  cpu time    0.1760: real time    0.1766
       DOS:  cpu time    0.0000: real time    0.0002
    --------------------------------------------
      LOOP:  cpu time    9.4966: real time    9.5415

 eigenvalue-minimisations  :   488
 total energy-change (2. order) :-0.7103150E+03  (-0.6574314E+03)
 number of electron     330.0000000 magnetization      90.0000000
 augmentation part      330.0000000 magnetization      90.0000000

 Free energy of the ion-electron system (eV)
  ---------------------------------------------------
  alpha Z        PSCENC =        33.86630271
  Ewald energy   TEWEN  =    110566.07332656
  -Hartree energ DENC   =   -148526.53849099
  -exchange      EXHF   =         0.00000000
  -V(xc)+E(xc)   XCENC  =      1383.91751990
  PAW double counting   =     36816.51539408   -39986.87630570
  entropy T*S    EENTRO =        -0.00000000
  eigenvalues    EBANDS =     -1411.66305412
  atomic energy  EATOM  =     41728.06753974
  Solvation  Ediel_sol  =         0.00000000
  ---------------------------------------------------
  free energy    TOTEN  =       603.36223218 eV

  energy without entropy =      603.36223218  energy(sigma->0) =      603.36223218


--------------------------------------------------------------------------------------------------------




----------------------------------------- Iteration    1(   5)  ---------------------------------------


    EDDIAG:  cpu time    2.1041: real time    2.1072
  RMM-DIIS:  cpu time    7.2445: real time    7.2444
    ORTHCH:  cpu time    0.1760: real time    0.1766
       DOS:  cpu time    0.0000: real time    0.0002
    --------------------------------------------
      LOOP:  cpu time    9.5286: real time    9.6001

 eigenvalue-minimisations  :   488
 total energy-change (2. order) :-0.3584531E+03  (-0.2756631E+03)
 number of electron     330.0000000 magnetization      90.0000000
 augmentation part      330.0000000 magnetization      90.0000000

 Free energy of the ion-electron system (eV)
  ---------------------------------------------------
  alpha Z        PSCENC =        33.86630271
  Ewald energy   TEWEN  =    110566.07332656
  -Hartree energ DENC   =   -148526.53849099
  -exchange      EXHF   =         0.00000000
  -V(xc)+E(xc)   XCENC  =      1383.91751990
  PAW double counting   =     36816.51539408   -39986.87630570
  entropy T*S    EENTRO =         0.00000000
  eigenvalues    EBANDS =     -1770.11613556
  atomic energy  EATOM  =     41728.06753974
  Solvation  Ediel_sol  =         0.00000000
  ---------------------------------------------------
  free energy    TOTEN  =       244.90915074 eV

  energy without entropy =      244.90915074  energy(sigma->0) =      244.90915074


--------------------------------------------------------------------------------------------------------




----------------------------------------- Iteration    1(   6)  ---------------------------------------


    EDDIAG:  cpu time    2.1081: real time    2.1068
  RMM-DIIS:  cpu time    7.4205: real time    7.4240
    ORTHCH:  cpu time    0.1760: real time    0.1762
       DOS:  cpu time    0.0000: real time    0.0002
    --------------------------------------------
      LOOP:  cpu time    9.7046: real time    9.7305

 eigenvalue-minimisations  :   488
 total energy-change (2. order) :-0.1802788E+03  (-0.1186757E+03)
 number of electron     330.0000000 magnetization      90.0000000
 augmentation part      330.0000000 magnetization      90.0000000

 Free energy of the ion-electron system (eV)
  ---------------------------------------------------
  alpha Z        PSCENC =        33.86630271
  Ewald energy   TEWEN  =    110566.07332656
  -Hartree energ DENC   =   -148526.53849099
  -exchange      EXHF   =         0.00000000
  -V(xc)+E(xc)   XCENC  =      1383.91751990
  PAW double counting   =     36816.51539408   -39986.87630570
  entropy T*S    EENTRO =         0.00000000
  eigenvalues    EBANDS =     -1950.39497375
  atomic energy  EATOM  =     41728.06753974
  Solvation  Ediel_sol  =         0.00000000
  ---------------------------------------------------
  free energy    TOTEN  =        64.63031255 eV

  energy without entropy =       64.63031255  energy(sigma->0) =       64.63031255


--------------------------------------------------------------------------------------------------------




----------------------------------------- Iteration    1(   7)  ---------------------------------------


    EDDIAG:  cpu time    2.1041: real time    2.1077
  RMM-DIIS:  cpu time    7.0204: real time    7.0209
    ORTHCH:  cpu time    0.1760: real time    0.1764
       DOS:  cpu time    0.0000: real time    0.0002
    --------------------------------------------
      LOOP:  cpu time    9.3046: real time    9.3102

 eigenvalue-minimisations  :   488
 total energy-change (2. order) :-0.6377273E+02  (-0.5692196E+02)
 number of electron     330.0000000 magnetization      90.0000000
 augmentation part      330.0000000 magnetization      90.0000000

 Free energy of the ion-electron system (eV)
  ---------------------------------------------------
  alpha Z        PSCENC =        33.86630271
  Ewald energy   TEWEN  =    110566.07332656
  -Hartree energ DENC   =   -148526.53849099
  -exchange      EXHF   =         0.00000000
  -V(xc)+E(xc)   XCENC  =      1383.91751990
  PAW double counting   =     36816.51539408   -39986.87630570
  entropy T*S    EENTRO =         0.00000000
  eigenvalues    EBANDS =     -2014.16770815
  atomic energy  EATOM  =     41728.06753974
  Solvation  Ediel_sol  =         0.00000000
  ---------------------------------------------------
  free energy    TOTEN  =         0.85757814 eV

  energy without entropy =        0.85757814  energy(sigma->0) =        0.85757814


--------------------------------------------------------------------------------------------------------




----------------------------------------- Iteration    1(   8)  ---------------------------------------


    EDDIAG:  cpu time    2.1121: real time    2.1113
  RMM-DIIS:  cpu time    7.0844: real time    7.0871
    ORTHCH:  cpu time    0.1760: real time    0.1771
       DOS:  cpu time    0.0000: real time    0.0002
    --------------------------------------------
      LOOP:  cpu time    9.3726: real time   11.9699

 eigenvalue-minimisations  :   488
 total energy-change (2. order) :-0.2637101E+02  (-0.1977962E+02)
 number of electron     330.0000000 magnetization      90.0000000
 augmentation part      330.0000000 magnetization      90.0000000

 Free energy of the ion-electron system (eV)
  ---------------------------------------------------
  alpha Z        PSCENC =        33.86630271
  Ewald energy   TEWEN  =    110566.07332656
  -Hartree energ DENC   =   -148526.53849099
  -exchange      EXHF   =         0.00000000
  -V(xc)+E(xc)   XCENC  =      1383.91751990
  PAW double counting   =     36816.51539408   -39986.87630570
  entropy T*S    EENTRO =         0.00000000
  eigenvalues    EBANDS =     -2040.53871502
  atomic energy  EATOM  =     41728.06753974
  Solvation  Ediel_sol  =         0.00000000
  ---------------------------------------------------
  free energy    TOTEN  =       -25.51342872 eV

  energy without entropy =      -25.51342872  energy(sigma->0) =      -25.51342872


--------------------------------------------------------------------------------------------------------




----------------------------------------- Iteration    1(   9)  ---------------------------------------


    EDDIAG:  cpu time    2.1081: real time    2.1088
  RMM-DIIS:  cpu time   15.2049: real time   15.2126
    ORTHCH:  cpu time    0.1760: real time    0.1764
       DOS:  cpu time    0.0000: real time    0.0002
    --------------------------------------------
      LOOP:  cpu time   17.4931: real time   17.5065

 eigenvalue-minimisations  :  1135
 total energy-change (2. order) :-0.2743854E+02  (-0.2470674E+02)
 number of electron     330.0000000 magnetization      90.0000000
 augmentation part      330.0000000 magnetization      90.0000000

 Free energy of the ion-electron system (eV)
  ---------------------------------------------------
  alpha Z        PSCENC =        33.86630271
  Ewald energy   TEWEN  =    110566.07332656
  -Hartree energ DENC   =   -148526.53849099
  -exchange      EXHF   =         0.00000000
  -V(xc)+E(xc)   XCENC  =      1383.91751990
  PAW double counting   =     36816.51539408   -39986.87630570
  entropy T*S    EENTRO =         0.00000000
  eigenvalues    EBANDS =     -2067.97725761
  atomic energy  EATOM  =     41728.06753974
  Solvation  Ediel_sol  =         0.00000000
  ---------------------------------------------------
  free energy    TOTEN  =       -52.95197132 eV

  energy without entropy =      -52.95197132  energy(sigma->0) =      -52.95197132


--------------------------------------------------------------------------------------------------------




----------------------------------------- Iteration    1(  10)  ---------------------------------------


    EDDIAG:  cpu time    2.1081: real time    2.1087
  RMM-DIIS:  cpu time   15.0249: real time   15.0323
    ORTHCH:  cpu time    0.1760: real time    0.1766
       DOS:  cpu time    0.0000: real time    0.0002
    --------------------------------------------
      LOOP:  cpu time   17.3131: real time   17.3563

 eigenvalue-minimisations  :  1138
 total energy-change (2. order) :-0.4731389E+01  (-0.3493191E+01)
 number of electron     330.0000000 magnetization      90.0000000
 augmentation part      330.0000000 magnetization      90.0000000

 Free energy of the ion-electron system (eV)
  ---------------------------------------------------
  alpha Z        PSCENC =        33.86630271
  Ewald energy   TEWEN  =    110566.07332656
  -Hartree energ DENC   =   -148526.53849099
  -exchange      EXHF   =         0.00000000
  -V(xc)+E(xc)   XCENC  =      1383.91751990
  PAW double counting   =     36816.51539408   -39986.87630570
  entropy T*S    EENTRO =        -0.00000000
  eigenvalues    EBANDS =     -2072.70864708
  atomic energy  EATOM  =     41728.06753974
  Solvation  Ediel_sol  =         0.00000000
  ---------------------------------------------------
  free energy    TOTEN  =       -57.68336079 eV

  energy without entropy =      -57.68336079  energy(sigma->0) =      -57.68336079


--------------------------------------------------------------------------------------------------------




----------------------------------------- Iteration    1(  11)  ---------------------------------------


    EDDIAG:  cpu time    2.1121: real time    2.1131
  RMM-DIIS:  cpu time   14.7169: real time   14.7264
    ORTHCH:  cpu time    0.1760: real time    0.1764
       DOS:  cpu time    0.0000: real time    0.0002
    --------------------------------------------
      LOOP:  cpu time   17.0131: real time   17.0589

 eigenvalue-minimisations  :  1117
 total energy-change (2. order) :-0.2560012E+01  (-0.1336578E+01)
 number of electron     330.0000000 magnetization      90.0000000
 augmentation part      330.0000000 magnetization      90.0000000

 Free energy of the ion-electron system (eV)
  ---------------------------------------------------
  alpha Z        PSCENC =        33.86630271
  Ewald energy   TEWEN  =    110566.07332656
  -Hartree energ DENC   =   -148526.53849099
  -exchange      EXHF   =         0.00000000
  -V(xc)+E(xc)   XCENC  =      1383.91751990
  PAW double counting   =     36816.51539408   -39986.87630570
  entropy T*S    EENTRO =        -0.00000000
  eigenvalues    EBANDS =     -2075.26865906
  atomic energy  EATOM  =     41728.06753974
  Solvation  Ediel_sol  =         0.00000000
  ---------------------------------------------------
  free energy    TOTEN  =       -60.24337277 eV

  energy without entropy =      -60.24337277  energy(sigma->0) =      -60.24337277


--------------------------------------------------------------------------------------------------------




----------------------------------------- Iteration    1(  12)  ---------------------------------------


    EDDIAG:  cpu time    2.1081: real time    2.1085
  RMM-DIIS:  cpu time   13.9529: real time   13.9584
    ORTHCH:  cpu time    0.1760: real time    0.1767
       DOS:  cpu time    0.0000: real time    0.0002
    CHARGE:  cpu time    1.2041: real time    1.2046
    MIXING:  cpu time    0.0240: real time    0.0219
    --------------------------------------------
      LOOP:  cpu time   17.4651: real time   17.4944

 eigenvalue-minimisations  :  1056
 total energy-change (2. order) :-0.4790606E+00  (-0.2439279E+00)
 number of electron     330.0001382 magnetization      84.0343090
 augmentation part      194.3657879 magnetization      80.8418671

 Broyden mixing:
  rms(total) = 0.97876E+01    rms(broyden)= 0.97861E+01
  rms(prec ) = 0.98640E+01
  weight for this iteration     100.00

 Free energy of the ion-electron system (eV)
  ---------------------------------------------------
  alpha Z        PSCENC =        33.86630271
  Ewald energy   TEWEN  =    110566.07332656
  -Hartree energ DENC   =   -148526.53849099
  -exchange      EXHF   =         0.00000000
  -V(xc)+E(xc)   XCENC  =      1383.91751990
  PAW double counting   =     36816.51539408   -39986.87630570
  entropy T*S    EENTRO =         0.00000000
  eigenvalues    EBANDS =     -2075.74771969
  atomic energy  EATOM  =     41728.06753974
  Solvation  Ediel_sol  =         0.00000000
  ---------------------------------------------------
  free energy    TOTEN  =       -60.72243339 eV

  energy without entropy =      -60.72243339  energy(sigma->0) =      -60.72243339


--------------------------------------------------------------------------------------------------------




----------------------------------------- Iteration    1(  13)  ---------------------------------------


    POTLOK:  cpu time    1.0041: real time    1.0045
    SETDIJ:  cpu time    0.0200: real time    0.0195
    EDDIAG:  cpu time    2.1121: real time    2.1148
  RMM-DIIS:  cpu time   13.0008: real time   13.0046
    ORTHCH:  cpu time    0.1800: real time    0.1797
       DOS:  cpu time    0.0000: real time    0.0003
    CHARGE:  cpu time    1.2041: real time    1.2051
    MIXING:  cpu time    0.0240: real time    0.0224
    --------------------------------------------
      LOOP:  cpu time   17.5451: real time   17.5900

 eigenvalue-minimisations  :   977
 total energy-change (2. order) : 0.1705509E+03  (-0.1072224E+03)
 number of electron     330.0001656 magnetization      79.5406570
 augmentation part      228.1177324 magnetization      58.1709743

 Broyden mixing:
  rms(total) = 0.48588E+01    rms(broyden)= 0.48564E+01
  rms(prec ) = 0.50016E+01
  weight for this iteration     100.00

 eigenvalues of (default mixing * dielectric matrix)
  average eigenvalue GAMMA=   0.9226
  0.9226

 Free energy of the ion-electron system (eV)
  ---------------------------------------------------
  alpha Z        PSCENC =        33.86630271
  Ewald energy   TEWEN  =    110566.07332656
  -Hartree energ DENC   =   -147628.93672719
  -exchange      EXHF   =         0.00000000
  -V(xc)+E(xc)   XCENC  =      1486.87752909
  PAW double counting   =     36883.91879499   -39890.96819527
  entropy T*S    EENTRO =         0.00000000
  eigenvalues    EBANDS =     -3069.07008014
  atomic energy  EATOM  =     41728.06753974
  Solvation  Ediel_sol  =         0.00000000
  ---------------------------------------------------
  free energy    TOTEN  =       109.82849049 eV

  energy without entropy =      109.82849049  energy(sigma->0) =      109.82849049


--------------------------------------------------------------------------------------------------------




----------------------------------------- Iteration    1(  14)  ---------------------------------------


    POTLOK:  cpu time    1.0081: real time    1.0083
    SETDIJ:  cpu time    0.0200: real time    0.0195
    EDDIAG:  cpu time    2.1121: real time    2.1133
  RMM-DIIS:  cpu time   13.1768: real time   13.1829
    ORTHCH:  cpu time    0.1800: real time    0.1786
       DOS:  cpu time    0.0000: real time    0.0003
    CHARGE:  cpu time    1.2041: real time    1.2048
    MIXING:  cpu time    0.0240: real time    0.0231
    --------------------------------------------
      LOOP:  cpu time   17.7251: real time   17.7393

 eigenvalue-minimisations  :   978
 total energy-change (2. order) : 0.3635198E+02  (-0.2795161E+02)
 number of electron     330.0001532 magnetization      73.4417959
 augmentation part      211.1474621 magnetization      46.4286627

 Broyden mixing:
  rms(total) = 0.22960E+01    rms(broyden)= 0.22948E+01
  rms(prec ) = 0.23152E+01
  weight for this iteration     100.00

 eigenvalues of (default mixing * dielectric matrix)
  average eigenvalue GAMMA=   0.9272
  1.1678  0.6867

 Free energy of the ion-electron system (eV)
  ---------------------------------------------------
  alpha Z        PSCENC =        33.86630271
  Ewald energy   TEWEN  =    110566.07332656
  -Hartree energ DENC   =   -148427.23376131
  -exchange      EXHF   =         0.00000000
  -V(xc)+E(xc)   XCENC  =      1511.46070440
  PAW double counting   =     38092.60622585   -41356.29471186
  entropy T*S    EENTRO =         0.00000000
  eigenvalues    EBANDS =     -2002.36515581
  atomic energy  EATOM  =     41728.06753974
  Solvation  Ediel_sol  =         0.00000000
  ---------------------------------------------------
  free energy    TOTEN  =       146.18047028 eV

  energy without entropy =      146.18047028  energy(sigma->0) =      146.18047028


--------------------------------------------------------------------------------------------------------




----------------------------------------- Iteration    1(  15)  ---------------------------------------


    POTLOK:  cpu time    1.0041: real time    1.0044
    SETDIJ:  cpu time    0.0200: real time    0.0193
    EDDIAG:  cpu time    2.1121: real time    2.1124
  RMM-DIIS:  cpu time   14.3089: real time   14.3163
    ORTHCH:  cpu time    0.1800: real time    0.1799
       DOS:  cpu time    0.0000: real time    0.0003
    CHARGE:  cpu time    1.2041: real time    1.2026
    MIXING:  cpu time    0.0240: real time    0.0242
    --------------------------------------------
      LOOP:  cpu time   18.8532: real time   18.9122

 eigenvalue-minimisations  :  1050
 total energy-change (2. order) : 0.8881695E+01  (-0.3019238E+01)
 number of electron     330.0001526 magnetization      67.1814185
 augmentation part      211.4740634 magnetization      38.0699863

 Broyden mixing:
  rms(total) = 0.16368E+01    rms(broyden)= 0.16364E+01
  rms(prec ) = 0.16460E+01
  weight for this iteration     100.00

 eigenvalues of (default mixing * dielectric matrix)
  average eigenvalue GAMMA=   1.0140
  0.6842  1.1789  1.1789

 Free energy of the ion-electron system (eV)
  ---------------------------------------------------
  alpha Z        PSCENC =        33.86630271
  Ewald energy   TEWEN  =    110566.07332656
  -Hartree energ DENC   =   -148513.21237574
  -exchange      EXHF   =         0.00000000
  -V(xc)+E(xc)   XCENC  =      1515.15282680
  PAW double counting   =     38597.88627317   -41863.47807122
  entropy T*S    EENTRO =        -0.00000000
  eigenvalues    EBANDS =     -1909.29365640
  atomic energy  EATOM  =     41728.06753974
  Solvation  Ediel_sol  =         0.00000000
  ---------------------------------------------------
  free energy    TOTEN  =       155.06216563 eV

  energy without entropy =      155.06216563  energy(sigma->0) =      155.06216563


--------------------------------------------------------------------------------------------------------




----------------------------------------- Iteration    1(  16)  ---------------------------------------


    POTLOK:  cpu time    1.0041: real time    1.0063
    SETDIJ:  cpu time    0.0200: real time    0.0194
    EDDIAG:  cpu time    2.1121: real time    2.1137
  RMM-DIIS:  cpu time   14.2209: real time   14.2268
    ORTHCH:  cpu time    0.1800: real time    0.1795
       DOS:  cpu time    0.0000: real time    0.0003
    CHARGE:  cpu time    1.2041: real time    1.2035
    MIXING:  cpu time    0.0240: real time    0.0252
    --------------------------------------------
      LOOP:  cpu time   18.7692: real time   19.9761

 eigenvalue-minimisations  :   981
 total energy-change (2. order) :-0.4557112E+02  (-0.1920289E+01)
 number of electron     330.0001548 magnetization      59.3558942
 augmentation part      212.8508145 magnetization      35.0172457

 Broyden mixing:
  rms(total) = 0.15751E+01    rms(broyden)= 0.15744E+01
  rms(prec ) = 0.16055E+01
  weight for this iteration     100.00

 eigenvalues of (default mixing * dielectric matrix)
  average eigenvalue GAMMA=   1.1138
  2.1059  1.1955  0.6782  0.4756

 Free energy of the ion-electron system (eV)
  ---------------------------------------------------
  alpha Z        PSCENC =        33.86630271
  Ewald energy   TEWEN  =    110566.07332656
  -Hartree energ DENC   =   -148451.35871193
  -exchange      EXHF   =         0.00000000
  -V(xc)+E(xc)   XCENC  =      1479.02554696
  PAW double counting   =     38754.89090193   -41994.68476569
  entropy T*S    EENTRO =        -0.00000000
  eigenvalues    EBANDS =     -2006.38909371
  atomic energy  EATOM  =     41728.06753974
  Solvation  Ediel_sol  =         0.00000000
  ---------------------------------------------------
  free energy    TOTEN  =       109.49104656 eV

  energy without entropy =      109.49104656  energy(sigma->0) =      109.49104656


--------------------------------------------------------------------------------------------------------




----------------------------------------- Iteration    1(  17)  ---------------------------------------


    POTLOK:  cpu time    1.0081: real time    1.0101
    SETDIJ:  cpu time    0.0200: real time    0.0196
    EDDIAG:  cpu time    2.1161: real time    2.1161
  RMM-DIIS:  cpu time   13.7249: real time   13.7311
    ORTHCH:  cpu time    0.1800: real time    0.1793
       DOS:  cpu time    0.0000: real time    0.0003
    CHARGE:  cpu time    1.2041: real time    1.2043
    MIXING:  cpu time    0.0240: real time    0.0264
    --------------------------------------------
      LOOP:  cpu time   18.2811: real time   18.2961

 eigenvalue-minimisations  :   980
 total energy-change (2. order) :-0.2995507E+02  (-0.1761042E+01)
 number of electron     330.0001542 magnetization      52.8630192
 augmentation part      213.6563074 magnetization      33.3277221

 Broyden mixing:
  rms(total) = 0.11307E+01    rms(broyden)= 0.11298E+01
  rms(prec ) = 0.11401E+01
  weight for this iteration     100.00

 eigenvalues of (default mixing * dielectric matrix)
  average eigenvalue GAMMA=   1.1227
  2.7154  1.1239  0.6609  0.6609  0.4525

 Free energy of the ion-electron system (eV)
  ---------------------------------------------------
  alpha Z        PSCENC =        33.86630271
  Ewald energy   TEWEN  =    110566.07332656
  -Hartree energ DENC   =   -148461.38802790
  -exchange      EXHF   =         0.00000000
  -V(xc)+E(xc)   XCENC  =      1456.94676585
  PAW double counting   =     39000.67667063   -42233.10213822
  entropy T*S    EENTRO =         0.00000000
  eigenvalues    EBANDS =     -2011.60446083
  atomic energy  EATOM  =     41728.06753974
  Solvation  Ediel_sol  =         0.00000000
  ---------------------------------------------------
  free energy    TOTEN  =        79.53597855 eV

  energy without entropy =       79.53597855  energy(sigma->0) =       79.53597855


--------------------------------------------------------------------------------------------------------




----------------------------------------- Iteration    1(  18)  ---------------------------------------


    POTLOK:  cpu time    1.0041: real time    1.0036
    SETDIJ:  cpu time    0.0160: real time    0.0195
    EDDIAG:  cpu time    2.1161: real time    2.1161
  RMM-DIIS:  cpu time   13.0408: real time   13.0460
    ORTHCH:  cpu time    0.1800: real time    0.1793
       DOS:  cpu time    0.0000: real time    0.0003
    CHARGE:  cpu time    1.2041: real time    1.2056
    MIXING:  cpu time    0.0280: real time    0.0261
    --------------------------------------------
      LOOP:  cpu time   17.5931: real time   21.4600

 eigenvalue-minimisations  :   978
 total energy-change (2. order) :-0.2000457E+02  (-0.1159975E+01)
 number of electron     330.0001536 magnetization      42.8959584
 augmentation part      212.5292485 magnetization      25.8118312

 Broyden mixing:
  rms(total) = 0.89075E+00    rms(broyden)= 0.89035E+00
  rms(prec ) = 0.89546E+00
  weight for this iteration     100.00

 eigenvalues of (default mixing * dielectric matrix)
  average eigenvalue GAMMA=   1.2227
  3.5522  1.1260  0.7978  0.7978  0.6228  0.4398

 Free energy of the ion-electron system (eV)
  ---------------------------------------------------
  alpha Z        PSCENC =        33.86630271
  Ewald energy   TEWEN  =    110566.07332656
  -Hartree energ DENC   =   -148544.86145325
  -exchange      EXHF   =         0.00000000
  -V(xc)+E(xc)   XCENC  =      1444.26819716
  PAW double counting   =     39192.55646310   -42434.01098431
  entropy T*S    EENTRO =         0.00000000
  eigenvalues    EBANDS =     -1926.42798030
  atomic energy  EATOM  =     41728.06753974
  Solvation  Ediel_sol  =         0.00000000
  ---------------------------------------------------
  free energy    TOTEN  =        59.53141140 eV

  energy without entropy =       59.53141140  energy(sigma->0) =       59.53141140


--------------------------------------------------------------------------------------------------------




----------------------------------------- Iteration    1(  19)  ---------------------------------------


    POTLOK:  cpu time    1.0041: real time    1.0042
    SETDIJ:  cpu time    0.0200: real time    0.0194
    EDDIAG:  cpu time    2.1161: real time    2.1183
  RMM-DIIS:  cpu time   13.4208: real time   13.4255
    ORTHCH:  cpu time    0.1800: real time    0.1800
       DOS:  cpu time    0.0000: real time    0.0003
    CHARGE:  cpu time    1.2081: real time    1.2071
    MIXING:  cpu time    0.0280: real time    0.0274
    --------------------------------------------
      LOOP:  cpu time   17.9771: real time   18.0086

 eigenvalue-minimisations  :   978
 total energy-change (2. order) :-0.4079720E+02  (-0.2861837E+01)
 number of electron     330.0001526 magnetization      34.2861642
 augmentation part      211.2826793 magnetization      18.8007784

 Broyden mixing:
  rms(total) = 0.69307E+00    rms(broyden)= 0.69287E+00
  rms(prec ) = 0.70459E+00
  weight for this iteration     100.00

 eigenvalues of (default mixing * dielectric matrix)
  average eigenvalue GAMMA=   1.4065
  4.7804  1.7751  0.8408  0.7429  0.7429  0.4952  0.4682

 Free energy of the ion-electron system (eV)
  ---------------------------------------------------
  alpha Z        PSCENC =        33.86630271
  Ewald energy   TEWEN  =    110566.07332656
  -Hartree energ DENC   =   -148624.60258520
  -exchange      EXHF   =         0.00000000
  -V(xc)+E(xc)   XCENC  =      1415.15884024
  PAW double counting   =     39324.77275020   -42567.15722652
  entropy T*S    EENTRO =         0.00000000
  eigenvalues    EBANDS =     -1857.44473319
  atomic energy  EATOM  =     41728.06753974
  Solvation  Ediel_sol  =         0.00000000
  ---------------------------------------------------
  free energy    TOTEN  =        18.73421453 eV

  energy without entropy =       18.73421453  energy(sigma->0) =       18.73421453


--------------------------------------------------------------------------------------------------------




----------------------------------------- Iteration    1(  20)  ---------------------------------------


    POTLOK:  cpu time    1.0121: real time    1.0096
    SETDIJ:  cpu time    0.0160: real time    0.0195
    EDDIAG:  cpu time    2.1161: real time    2.1171
  RMM-DIIS:  cpu time   13.0688: real time   13.0772
    ORTHCH:  cpu time    0.1800: real time    0.1790
       DOS:  cpu time    0.0000: real time    0.0003
    CHARGE:  cpu time    1.2121: real time    1.2133
    MIXING:  cpu time    0.0280: real time    0.0291
    --------------------------------------------
      LOOP:  cpu time   17.6371: real time   17.6517

 eigenvalue-minimisations  :   978
 total energy-change (2. order) :-0.4456497E+02  (-0.4604344E+01)
 number of electron     330.0001524 magnetization      29.6082997
 augmentation part      211.3951159 magnetization      18.1756040

 Broyden mixing:
  rms(total) = 0.54699E+00    rms(broyden)= 0.54617E+00
  rms(prec ) = 0.56063E+00
  weight for this iteration     100.00

 eigenvalues of (default mixing * dielectric matrix)
  average eigenvalue GAMMA=   1.4129
  5.3556  2.0932  0.9520  0.6720  0.6720  0.6380  0.4602  0.4602

 Free energy of the ion-electron system (eV)
  ---------------------------------------------------
  alpha Z        PSCENC =        33.86630271
  Ewald energy   TEWEN  =    110566.07332656
  -Hartree energ DENC   =   -148580.62352191
  -exchange      EXHF   =         0.00000000
  -V(xc)+E(xc)   XCENC  =      1381.11665468
  PAW double counting   =     39141.86050414   -42367.11325196
  entropy T*S    EENTRO =         0.00000000
  eigenvalues    EBANDS =     -1929.07830524
  atomic energy  EATOM  =     41728.06753974
  Solvation  Ediel_sol  =         0.00000000
  ---------------------------------------------------
  free energy    TOTEN  =       -25.83075129 eV

  energy without entropy =      -25.83075129  energy(sigma->0) =      -25.83075129


--------------------------------------------------------------------------------------------------------




----------------------------------------- Iteration    1(  21)  ---------------------------------------


    POTLOK:  cpu time    1.0081: real time    1.0103
    SETDIJ:  cpu time    0.0200: real time    0.0196
    EDDIAG:  cpu time    2.1201: real time    2.1180
  RMM-DIIS:  cpu time   13.0528: real time   13.0597
    ORTHCH:  cpu time    0.1800: real time    0.1792
       DOS:  cpu time    0.0000: real time    0.0002
    CHARGE:  cpu time    1.2081: real time    1.2100
    MIXING:  cpu time    0.0320: real time    0.0308
    --------------------------------------------
      LOOP:  cpu time   17.6251: real time   17.6367

 eigenvalue-minimisations  :   977
 total energy-change (2. order) :-0.1597486E+02  (-0.1975442E+01)
 number of electron     330.0001527 magnetization      24.7774761
 augmentation part      210.9463913 magnetization      16.4860676

 Broyden mixing:
  rms(total) = 0.45908E+00    rms(broyden)= 0.45835E+00
  rms(prec ) = 0.47392E+00
  weight for this iteration     100.00

 eigenvalues of (default mixing * dielectric matrix)
  average eigenvalue GAMMA=   1.4616
  6.1026  2.3909  0.9767  0.7686  0.7686  0.6120  0.6120  0.4614  0.4614

 Free energy of the ion-electron system (eV)
  ---------------------------------------------------
  alpha Z        PSCENC =        33.86630271
  Ewald energy   TEWEN  =    110566.07332656
  -Hartree energ DENC   =   -148565.46809997
  -exchange      EXHF   =         0.00000000
  -V(xc)+E(xc)   XCENC  =      1369.79162526
  PAW double counting   =     39066.40891716   -42288.42990749
  entropy T*S    EENTRO =         0.00000000
  eigenvalues    EBANDS =     -1952.11531609
  atomic energy  EATOM  =     41728.06753974
  Solvation  Ediel_sol  =         0.00000000
  ---------------------------------------------------
  free energy    TOTEN  =       -41.80561211 eV

  energy without entropy =      -41.80561211  energy(sigma->0) =      -41.80561211


--------------------------------------------------------------------------------------------------------




----------------------------------------- Iteration    1(  22)  ---------------------------------------


    POTLOK:  cpu time    1.0121: real time    1.0104
    SETDIJ:  cpu time    0.0200: real time    0.0195
    EDDIAG:  cpu time    2.1121: real time    2.1143
  RMM-DIIS:  cpu time   13.1128: real time   13.1169
    ORTHCH:  cpu time    0.1800: real time    0.1797
       DOS:  cpu time    0.0000: real time    0.0003
    CHARGE:  cpu time    1.2041: real time    1.2071
    MIXING:  cpu time    0.0360: real time    0.0336
    --------------------------------------------
      LOOP:  cpu time   17.6771: real time   17.7065

 eigenvalue-minimisations  :   976
 total energy-change (2. order) :-0.1160180E+02  (-0.1265634E+01)
 number of electron     330.0001527 magnetization      19.9168845
 augmentation part      211.0770412 magnetization      14.5340108

 Broyden mixing:
  rms(total) = 0.37529E+00    rms(broyden)= 0.37469E+00
  rms(prec ) = 0.38855E+00
  weight for this iteration     100.00

 eigenvalues of (default mixing * dielectric matrix)
  average eigenvalue GAMMA=   1.5093
  7.0013  2.6058  1.0185  0.9212  0.9212  0.5950  0.5950  0.5465  0.4441  0.4441

 Free energy of the ion-electron system (eV)
  ---------------------------------------------------
  alpha Z        PSCENC =        33.86630271
  Ewald energy   TEWEN  =    110566.07332656
  -Hartree energ DENC   =   -148536.00700529
  -exchange      EXHF   =         0.00000000
  -V(xc)+E(xc)   XCENC  =      1360.57159278
  PAW double counting   =     39010.63552196   -42227.84177749
  entropy T*S    EENTRO =         0.00000000
  eigenvalues    EBANDS =     -1988.77291113
  atomic energy  EATOM  =     41728.06753974
  Solvation  Ediel_sol  =         0.00000000
  ---------------------------------------------------
  free energy    TOTEN  =       -53.40741017 eV

  energy without entropy =      -53.40741017  energy(sigma->0) =      -53.40741017


--------------------------------------------------------------------------------------------------------




----------------------------------------- Iteration    1(  23)  ---------------------------------------


    POTLOK:  cpu time    1.0081: real time    1.0060
    SETDIJ:  cpu time    0.0160: real time    0.0196
    EDDIAG:  cpu time    2.1161: real time    2.1162
  RMM-DIIS:  cpu time   13.0528: real time   13.0577
    ORTHCH:  cpu time    0.1680: real time    0.1666
       DOS:  cpu time    0.0000: real time    0.0003
    CHARGE:  cpu time    1.2001: real time    1.2026
    MIXING:  cpu time    0.0360: real time    0.0362
    --------------------------------------------
      LOOP:  cpu time   17.5971: real time   19.0552

 eigenvalue-minimisations  :   977
 total energy-change (2. order) :-0.9988614E+01  (-0.8139236E+00)
 number of electron     330.0001530 magnetization      16.4892321
 augmentation part      211.3216565 magnetization      13.6995866

 Broyden mixing:
  rms(total) = 0.29097E+00    rms(broyden)= 0.29022E+00
  rms(prec ) = 0.29740E+00
  weight for this iteration     100.00

 eigenvalues of (default mixing * dielectric matrix)
  average eigenvalue GAMMA=   1.5371
  7.8419  2.7270  1.1128  1.0187  1.0187  0.6569  0.6010  0.6010  0.4253  0.4524
  0.4524

 Free energy of the ion-electron system (eV)
  ---------------------------------------------------
  alpha Z        PSCENC =        33.86630271
  Ewald energy   TEWEN  =    110566.07332656
  -Hartree energ DENC   =   -148508.98191816
  -exchange      EXHF   =         0.00000000
  -V(xc)+E(xc)   XCENC  =      1351.74215968
  PAW double counting   =     38962.56515473   -42177.26969164
  entropy T*S    EENTRO =         0.00000000
  eigenvalues    EBANDS =     -2019.45889744
  atomic energy  EATOM  =     41728.06753974
  Solvation  Ediel_sol  =         0.00000000
  ---------------------------------------------------
  free energy    TOTEN  =       -63.39602382 eV

  energy without entropy =      -63.39602382  energy(sigma->0) =      -63.39602382


--------------------------------------------------------------------------------------------------------




----------------------------------------- Iteration    1(  24)  ---------------------------------------


    POTLOK:  cpu time    1.0081: real time    1.0086
    SETDIJ:  cpu time    0.0200: real time    0.0195
    EDDIAG:  cpu time    2.1161: real time    2.1168
  RMM-DIIS:  cpu time   13.0888: real time   13.0951
    ORTHCH:  cpu time    0.1800: real time    0.1784
       DOS:  cpu time    0.0000: real time    0.0006
    CHARGE:  cpu time    1.2081: real time    1.2093
    MIXING:  cpu time    0.0400: real time    0.0392
    --------------------------------------------
      LOOP:  cpu time   17.6651: real time   18.6660

 eigenvalue-minimisations  :   982
 total energy-change (2. order) :-0.5215049E+01  (-0.2943110E+00)
 number of electron     330.0001528 magnetization      14.7560985
 augmentation part      211.2912497 magnetization      12.5169145

 Broyden mixing:
  rms(total) = 0.22850E+00    rms(broyden)= 0.22840E+00
  rms(prec ) = 0.23281E+00
  weight for this iteration     100.00

 eigenvalues of (default mixing * dielectric matrix)
  average eigenvalue GAMMA=   1.5671
  8.3459  3.0894  1.2139  1.2139  0.8396  0.8396  0.6759  0.6759  0.5465  0.4729
  0.4729  0.4191

 Free energy of the ion-electron system (eV)
  ---------------------------------------------------
  alpha Z        PSCENC =        33.86630271
  Ewald energy   TEWEN  =    110566.07332656
  -Hartree energ DENC   =   -148499.34813548
  -exchange      EXHF   =         0.00000000
  -V(xc)+E(xc)   XCENC  =      1347.09049067
  PAW double counting   =     38947.56244569   -42163.93420237
  entropy T*S    EENTRO =        -0.00000001
  eigenvalues    EBANDS =     -2027.98884014
  atomic energy  EATOM  =     41728.06753974
  Solvation  Ediel_sol  =         0.00000000
  ---------------------------------------------------
  free energy    TOTEN  =       -68.61107264 eV

  energy without entropy =      -68.61107262  energy(sigma->0) =      -68.61107263


--------------------------------------------------------------------------------------------------------




----------------------------------------- Iteration    1(  25)  ---------------------------------------


    POTLOK:  cpu time    1.0041: real time    1.0054
    SETDIJ:  cpu time    0.0200: real time    0.0194
    EDDIAG:  cpu time    2.1161: real time    2.1165
  RMM-DIIS:  cpu time   13.0288: real time   13.0357
    ORTHCH:  cpu time    0.1760: real time    0.1780
       DOS:  cpu time    0.0000: real time    0.0003
    CHARGE:  cpu time    1.2041: real time    1.2067
    MIXING:  cpu time    0.0440: real time    0.0426
    --------------------------------------------
      LOOP:  cpu time   17.6011: real time   17.6181

 eigenvalue-minimisations  :   977
 total energy-change (2. order) :-0.4687209E+01  (-0.1174740E+00)
 number of electron     330.0001532 magnetization      12.2337855
 augmentation part      211.4398369 magnetization      11.7839111

 Broyden mixing:
  rms(total) = 0.24813E+00    rms(broyden)= 0.24719E+00
  rms(prec ) = 0.25323E+00
  weight for this iteration     100.00

 eigenvalues of (default mixing * dielectric matrix)
  average eigenvalue GAMMA=   1.4965
  8.7773  3.0375  0.9359  0.9359  0.9309  0.8863  0.8863  0.6797  0.6797  0.4877
  0.4584  0.3931  0.3654

 Free energy of the ion-electron system (eV)
  ---------------------------------------------------
  alpha Z        PSCENC =        33.86630271
  Ewald energy   TEWEN  =    110566.07332656
  -Hartree energ DENC   =   -148471.20767738
  -exchange      EXHF   =         0.00000000
  -V(xc)+E(xc)   XCENC  =      1342.45005489
  PAW double counting   =     38890.68882501   -42107.28963320
  entropy T*S    EENTRO =         0.00000000
  eigenvalues    EBANDS =     -2055.94701971
  atomic energy  EATOM  =     41728.06753974
  Solvation  Ediel_sol  =         0.00000000
  ---------------------------------------------------
  free energy    TOTEN  =       -73.29828138 eV

  energy without entropy =      -73.29828138  energy(sigma->0) =      -73.29828138


--------------------------------------------------------------------------------------------------------




----------------------------------------- Iteration    1(  26)  ---------------------------------------


    POTLOK:  cpu time    1.0161: real time    1.0150
    SETDIJ:  cpu time    0.0200: real time    0.0193
    EDDIAG:  cpu time    2.1161: real time    2.1158
  RMM-DIIS:  cpu time   13.0648: real time   13.0728
    ORTHCH:  cpu time    0.1800: real time    0.1786
       DOS:  cpu time    0.0000: real time    0.0002
    CHARGE:  cpu time    1.2041: real time    1.2039
    MIXING:  cpu time    0.0480: real time    0.0471
    --------------------------------------------
      LOOP:  cpu time   17.6491: real time   17.6592

 eigenvalue-minimisations  :   979
 total energy-change (2. order) :-0.1987019E+01  (-0.4284894E-01)
 number of electron     330.0001532 magnetization       8.2408556
 augmentation part      211.3861440 magnetization       7.9632408

 Broyden mixing:
  rms(total) = 0.16606E+00    rms(broyden)= 0.16598E+00
  rms(prec ) = 0.17010E+00
  weight for this iteration     100.00

 eigenvalues of (default mixing * dielectric matrix)
  average eigenvalue GAMMA=   1.6156
  9.8815  3.0101  2.0088  1.0428  1.0428  0.9489  0.7890  0.7890  0.6497  0.6497
  0.4717  0.4717  0.4483  0.4146

 Free energy of the ion-electron system (eV)
  ---------------------------------------------------
  alpha Z        PSCENC =        33.86630271
  Ewald energy   TEWEN  =    110566.07332656
  -Hartree energ DENC   =   -148470.27593746
  -exchange      EXHF   =         0.00000000
  -V(xc)+E(xc)   XCENC  =      1340.63816154
  PAW double counting   =     38892.30567231   -42110.40373870
  entropy T*S    EENTRO =         0.00000000
  eigenvalues    EBANDS =     -2055.55662723
  atomic energy  EATOM  =     41728.06753974
  Solvation  Ediel_sol  =         0.00000000
  ---------------------------------------------------
  free energy    TOTEN  =       -75.28530054 eV

  energy without entropy =      -75.28530054  energy(sigma->0) =      -75.28530054


--------------------------------------------------------------------------------------------------------




----------------------------------------- Iteration    1(  27)  ---------------------------------------


    POTLOK:  cpu time    1.0081: real time    1.0084
    SETDIJ:  cpu time    0.0200: real time    0.0194
    EDDIAG:  cpu time    2.1161: real time    2.1177
  RMM-DIIS:  cpu time   13.1168: real time   13.1246
    ORTHCH:  cpu time    0.1760: real time    0.1785
       DOS:  cpu time    0.0000: real time    0.0002
    CHARGE:  cpu time    1.2081: real time    1.2083
    MIXING:  cpu time    0.0520: real time    0.0531
    --------------------------------------------
      LOOP:  cpu time   17.7011: real time   17.7631

 eigenvalue-minimisations  :   977
 total energy-change (2. order) :-0.3720436E+01  (-0.4549631E-01)
 number of electron     330.0001531 magnetization       6.1701147
 augmentation part      211.4005774 magnetization       6.0973737

 Broyden mixing:
  rms(total) = 0.11461E+00    rms(broyden)= 0.11459E+00
  rms(prec ) = 0.11697E+00
  weight for this iteration     100.00

 eigenvalues of (default mixing * dielectric matrix)
  average eigenvalue GAMMA=   1.6601
 10.5076  3.2951  2.4253  1.1729  1.1729  1.0723  0.7536  0.7536  0.6440  0.6440
  0.6348  0.4713  0.4713  0.4702  0.4123

 Free energy of the ion-electron system (eV)
  ---------------------------------------------------
  alpha Z        PSCENC =        33.86630271
  Ewald energy   TEWEN  =    110566.07332656
  -Hartree energ DENC   =   -148450.65665200
  -exchange      EXHF   =         0.00000000
  -V(xc)+E(xc)   XCENC  =      1336.86508415
  PAW double counting   =     38863.51707120   -42083.64956263
  entropy T*S    EENTRO =         0.00000000
  eigenvalues    EBANDS =     -2073.08884596
  atomic energy  EATOM  =     41728.06753974
  Solvation  Ediel_sol  =         0.00000000
  ---------------------------------------------------
  free energy    TOTEN  =       -79.00573624 eV

  energy without entropy =      -79.00573624  energy(sigma->0) =      -79.00573624


--------------------------------------------------------------------------------------------------------




----------------------------------------- Iteration    1(  28)  ---------------------------------------


    POTLOK:  cpu time    1.0121: real time    1.0102
    SETDIJ:  cpu time    0.0200: real time    0.0194
    EDDIAG:  cpu time    2.1121: real time    2.1164
  RMM-DIIS:  cpu time   13.4008: real time   13.4073
    ORTHCH:  cpu time    0.1760: real time    0.1784
       DOS:  cpu time    0.0000: real time    0.0003
    CHARGE:  cpu time    1.2081: real time    1.2059
    MIXING:  cpu time    0.0600: real time    0.0615
    --------------------------------------------
      LOOP:  cpu time   17.9971: real time   18.0138

 eigenvalue-minimisations  :   978
 total energy-change (2. order) :-0.2410717E+01  (-0.2014702E-01)
 number of electron     330.0001531 magnetization       5.1950919
 augmentation part      211.3645142 magnetization       5.1600239

 Broyden mixing:
  rms(total) = 0.87026E-01    rms(broyden)= 0.87009E-01
  rms(prec ) = 0.90007E-01
  weight for this iteration     100.00

 eigenvalues of (default mixing * dielectric matrix)
  average eigenvalue GAMMA=   1.6663
 10.8516  3.7797  2.2912  1.2261  1.2261  1.2172  0.8314  0.8314  0.7383  0.6579
  0.6579  0.5332  0.4671  0.4671  0.4724  0.4127

 Free energy of the ion-electron system (eV)
  ---------------------------------------------------
  alpha Z        PSCENC =        33.86630271
  Ewald energy   TEWEN  =    110566.07332656
  -Hartree energ DENC   =   -148435.08625633
  -exchange      EXHF   =         0.00000000
  -V(xc)+E(xc)   XCENC  =      1334.43092866
  PAW double counting   =     38843.80435863   -42065.18338379
  entropy T*S    EENTRO =         0.00000000
  eigenvalues    EBANDS =     -2087.38926943
  atomic energy  EATOM  =     41728.06753974
  Solvation  Ediel_sol  =         0.00000000
  ---------------------------------------------------
  free energy    TOTEN  =       -81.41645327 eV

  energy without entropy =      -81.41645327  energy(sigma->0) =      -81.41645327


--------------------------------------------------------------------------------------------------------




----------------------------------------- Iteration    1(  29)  ---------------------------------------


    POTLOK:  cpu time    1.0081: real time    1.0109
    SETDIJ:  cpu time    0.0200: real time    0.0194
    EDDIAG:  cpu time    2.1121: real time    2.1145
  RMM-DIIS:  cpu time   13.4568: real time   13.4627
    ORTHCH:  cpu time    0.1800: real time    0.1787
       DOS:  cpu time    0.0000: real time    0.0003
    CHARGE:  cpu time    1.2041: real time    1.2055
    MIXING:  cpu time    0.0720: real time    0.0703
    --------------------------------------------
      LOOP:  cpu time   18.0571: real time   18.0691

 eigenvalue-minimisations  :   977
 total energy-change (2. order) :-0.1329669E+01  (-0.7377076E-02)
 number of electron     330.0001531 magnetization       3.5175323
 augmentation part      211.3686876 magnetization       3.4870825

 Broyden mixing:
  rms(total) = 0.64949E-01    rms(broyden)= 0.64943E-01
  rms(prec ) = 0.66951E-01
  weight for this iteration     100.00

 eigenvalues of (default mixing * dielectric matrix)
  average eigenvalue GAMMA=   1.7041
 11.2923  4.3879  2.3984  1.3605  1.3605  1.1219  1.1219  0.7540  0.7540  0.7541
  0.6819  0.6819  0.4651  0.4651  0.5045  0.4143  0.4514

 Free energy of the ion-electron system (eV)
  ---------------------------------------------------
  alpha Z        PSCENC =        33.86630271
  Ewald energy   TEWEN  =    110566.07332656
  -Hartree energ DENC   =   -148425.12772640
  -exchange      EXHF   =         0.00000000
  -V(xc)+E(xc)   XCENC  =      1333.05820110
  PAW double counting   =     38839.01204407   -42060.17443584
  entropy T*S    EENTRO =         0.00000000
  eigenvalues    EBANDS =     -2097.52137424
  atomic energy  EATOM  =     41728.06753974
  Solvation  Ediel_sol  =         0.00000000
  ---------------------------------------------------
  free energy    TOTEN  =       -82.74612230 eV

  energy without entropy =      -82.74612230  energy(sigma->0) =      -82.74612230


--------------------------------------------------------------------------------------------------------




----------------------------------------- Iteration    1(  30)  ---------------------------------------


    POTLOK:  cpu time    1.0081: real time    1.0103
    SETDIJ:  cpu time    0.0200: real time    0.0194
    EDDIAG:  cpu time    2.1161: real time    2.1159
  RMM-DIIS:  cpu time   13.0448: real time   13.0533
    ORTHCH:  cpu time    0.1800: real time    0.1792
       DOS:  cpu time    0.0000: real time    0.0003
    CHARGE:  cpu time    1.2081: real time    1.2064
    MIXING:  cpu time    0.0760: real time    0.0770
    --------------------------------------------
      LOOP:  cpu time   17.6571: real time   17.6720

 eigenvalue-minimisations  :   977
 total energy-change (2. order) :-0.1402008E+01  (-0.4631980E-02)
 number of electron     330.0001531 magnetization       2.3941936
 augmentation part      211.3543570 magnetization       2.3769095

 Broyden mixing:
  rms(total) = 0.39678E-01    rms(broyden)= 0.39671E-01
  rms(prec ) = 0.40870E-01
  weight for this iteration     100.00

 eigenvalues of (default mixing * dielectric matrix)
  average eigenvalue GAMMA=   1.7666
 11.8092  5.1083  2.5449  1.7254  1.7254  1.0280  1.0280  1.0023  0.7884  0.7884
  0.6737  0.6737  0.6190  0.4652  0.4652  0.4141  0.4839  0.4554

 Free energy of the ion-electron system (eV)
  ---------------------------------------------------
  alpha Z        PSCENC =        33.86630271
  Ewald energy   TEWEN  =    110566.07332656
  -Hartree energ DENC   =   -148413.38350452
  -exchange      EXHF   =         0.00000000
  -V(xc)+E(xc)   XCENC  =      1331.61588760
  PAW double counting   =     38845.68057890   -42066.72251879
  entropy T*S    EENTRO =         0.00000000
  eigenvalues    EBANDS =     -2109.34574240
  atomic energy  EATOM  =     41728.06753974
  Solvation  Ediel_sol  =         0.00000000
  ---------------------------------------------------
  free energy    TOTEN  =       -84.14813020 eV

  energy without entropy =      -84.14813020  energy(sigma->0) =      -84.14813020


--------------------------------------------------------------------------------------------------------




[...]
 -0.029   0.000   0.000  -0.006   0.000  -0.002   0.000   0.000   0.000   0.000   0.000   0.000   0.000   0.000  -0.009   0.000
 total augmentation occupancy for first ion, spin component:           2
 -0.000   0.000   0.000  -0.000   0.000  -0.000   0.000   0.000  -0.000   0.000   0.000   0.000   0.000   0.000   0.000   0.000
  0.000  -0.000  -0.000   0.000   0.000   0.000  -0.000  -0.000   0.000   0.000  -0.000   0.000  -0.000   0.000   0.000   0.000
  0.000  -0.000  -0.000   0.000  -0.000   0.000  -0.000  -0.000   0.000   0.000   0.000  -0.000  -0.000  -0.000   0.000   0.000
 -0.000   0.000   0.000  -0.000   0.000  -0.000   0.000   0.000  -0.000   0.000   0.000   0.000   0.000   0.000  -0.000   0.000
  0.000   0.000  -0.000   0.000  -0.000   0.000   0.000  -0.000   0.000  -0.000   0.000   0.000  -0.000  -0.000   0.000   0.000
 -0.000   0.000   0.000  -0.000   0.000   0.000   0.000   0.000   0.000   0.000   0.000   0.000   0.000   0.000  -0.000   0.000
  0.000  -0.000  -0.000   0.000   0.000   0.000   0.000   0.000   0.000  -0.000  -0.000   0.000   0.000  -0.000   0.000  -0.000
  0.000  -0.000  -0.000   0.000  -0.000   0.000   0.000   0.000   0.000   0.000  -0.000  -0.000   0.000   0.000   0.000  -0.000
 -0.000   0.000   0.000  -0.000   0.000   0.000   0.000   0.000   0.000   0.000   0.000   0.000   0.000   0.000   0.000   0.000
  0.000   0.000   0.000   0.000  -0.000   0.000  -0.000   0.000   0.000   0.000  -0.000   0.000   0.000   0.000   0.000  -0.000
  0.000  -0.000   0.000   0.000   0.000   0.000  -0.000  -0.000   0.000  -0.000  -0.000   0.000  -0.000   0.000   0.000   0.000
  0.000   0.000  -0.000   0.000   0.000   0.000   0.000  -0.000   0.000   0.000   0.000  -0.000   0.000  -0.000   0.000  -0.000
  0.000  -0.000  -0.000   0.000  -0.000   0.000   0.000   0.000   0.000   0.000  -0.000   0.000  -0.000   0.000   0.000   0.000
  0.000   0.000  -0.000   0.000  -0.000   0.000  -0.000   0.000   0.000   0.000   0.000  -0.000   0.000  -0.000   0.000  -0.000
  0.000   0.000   0.000  -0.000   0.000  -0.000   0.000   0.000   0.000   0.000   0.000   0.000   0.000   0.000  -0.000   0.000
  0.000   0.000   0.000   0.000   0.000   0.000  -0.000  -0.000   0.000  -0.000   0.000  -0.000   0.000  -0.000   0.000   0.000
  0.000  -0.000   0.000   0.000   0.000   0.000   0.000  -0.000   0.000   0.000   0.000   0.000  -0.000  -0.000   0.000   0.000
 -0.000   0.000   0.000   0.000   0.000   0.000   0.000   0.000  -0.000   0.000   0.000   0.000   0.000   0.000   0.000   0.000


------------------------ aborting loop because EDIFF is reached ----------------------------------------


 


 total charge     
 
# of ion     s       p       d       tot
----------------------------------------
  1        0.491   0.189   9.246   9.925
  2        0.468   0.177   9.264   9.909
  3        0.462   0.203   9.249   9.914
  4        0.462   0.203   9.249   9.914
  5        0.468   0.202   9.248   9.918
  6        0.478   0.216   9.237   9.931
  7        0.478   0.216   9.237   9.931
  8        0.481   0.202   9.239   9.923
  9        0.481   0.202   9.239   9.923
 10        0.454   0.153   9.268   9.876
 11        0.491   0.212   9.229   9.932
 12        0.491   0.212   9.229   9.932
 13        0.465   0.210   9.232   9.907
 14        0.465   0.210   9.232   9.907
 15        0.462   0.222   9.221   9.905
 16        0.462   0.222   9.221   9.905
 17        0.440   0.271   9.228   9.939
 18        0.440   0.271   9.228   9.939
 19        0.447   0.270   9.210   9.927
 20        0.447   0.270   9.210   9.927
 21        0.441   0.282   9.216   9.939
 22        0.441   0.282   9.216   9.939
 23        0.449   0.281   9.220   9.950
 24        0.426   0.272   9.227   9.924
 25        0.426   0.272   9.227   9.924
 26        0.460   0.259   9.214   9.932
 27        0.455   0.421   9.207  10.084
 28        0.433   0.388   9.218  10.039
 29        0.433   0.388   9.218  10.039
 30        0.421   0.377   9.212  10.011
------------------------------------------------
tot       13.718   7.558 276.889 298.166
 


 magnetization (x)
 
# of ion     s       p       d       tot
----------------------------------------
  1       -0.000  -0.000  -0.000  -0.000
  2        0.000   0.000  -0.000  -0.000
  3       -0.000  -0.000  -0.000  -0.000
  4       -0.000  -0.000  -0.000  -0.000
  5       -0.000  -0.000  -0.000  -0.000
  6        0.000   0.000  -0.000  -0.000
  7        0.000   0.000  -0.000  -0.000
  8       -0.000   0.000   0.000   0.000
  9       -0.000   0.000   0.000   0.000
 10       -0.000  -0.000  -0.000  -0.000
 11       -0.000   0.000  -0.000  -0.000
 12       -0.000   0.000  -0.000  -0.000
 13       -0.000  -0.000   0.000  -0.000
 14       -0.000  -0.000   0.000  -0.000
 15       -0.000   0.000   0.000  -0.000
 16       -0.000   0.000   0.000  -0.000
 17        0.000   0.000  -0.000  -0.000
 18        0.000   0.000  -0.000  -0.000
 19       -0.000   0.000  -0.000  -0.000
 20       -0.000   0.000  -0.000  -0.000
 21        0.000   0.000  -0.000   0.000
 22        0.000   0.000  -0.000   0.000
 23       -0.000  -0.000   0.000  -0.000
 24        0.000   0.000  -0.000  -0.000
 25        0.000   0.000  -0.000  -0.000
 26       -0.000  -0.000   0.000   0.000
 27       -0.000  -0.000   0.000  -0.000
 28       -0.000  -0.000  -0.000  -0.000
 29       -0.000  -0.000  -0.000  -0.000
 30        0.000  -0.000   0.000   0.000
------------------------------------------------
tot       -0.000  -0.000  -0.000  -0.000
 
    CHARGE:  cpu time    1.2041: real time    1.2040
    FORLOC:  cpu time    0.0600: real time    0.0616
    FORNL :  cpu time    8.0325: real time    8.0376
    STRESS:  cpu time   13.8609: real time   13.8673
    FORCOR:  cpu time    1.0121: real time    1.0123
    FORHAR:  cpu time    0.1680: real time    0.1679
    MIXING:  cpu time    0.0200: real time    0.0206
    OFIELD:  cpu time    0.0000: real time    0.0001

  FORCE on cell =-STRESS in cart. coord.  units (eV):
  Direction    XX          YY          ZZ          XY          YZ          ZX
  --------------------------------------------------------------------------------------
  Alpha Z    33.86630    33.86630    33.86630
  Ewald   39164.05613 38850.43906 32552.46136     0.00000     2.17449     0.00000
  Hartree 51684.58896 51350.37264 45352.67755     0.00000   -33.20062    -0.00000
  E(xc)   -1925.75841 -1925.72399 -1926.16762     0.00000     0.04801    -0.00000
  Local  -93797.04620-93145.86266-80842.58028    -0.00000    34.76941    -0.00000
  n-local  -696.36341  -697.47235  -701.10519     0.00001    -0.76725     0.00000
  augment  2824.58058  2823.23255  2821.68889    -0.00000    -1.27023    -0.00000
  Kinetic  2704.16671  2702.16301  2700.65117     0.00000    -1.74613    -0.00000
  Fock        0.00000     0.00000     0.00000     0.00000     0.00000     0.00000
  -------------------------------------------------------------------------------------
  Total      -7.90935    -8.98544    -8.50782     0.00000     0.00768     0.00000
  in kB      -0.65203    -0.74074    -0.70136     0.00000     0.00063     0.00000
  external pressure =       -0.70 kB  Pullay stress =        0.00 kB


 VOLUME and BASIS-vectors are now :
 -----------------------------------------------------------------------------
  energy-cutoff  :      295.45
  volume of cell :    19435.11
      direct lattice vectors                 reciprocal lattice vectors
    26.886172596  0.000000000  0.000000000     0.037193840  0.000000000  0.000000000
     0.000000000 26.886172596  0.000000000     0.000000000  0.037193840  0.000000000
     0.000000000  0.000000000 26.886172596     0.000000000  0.000000000  0.037193840

  length of vectors
    26.886172596 26.886172596 26.886172596     0.037193840  0.037193840  0.037193840


 FORCES acting on ions
    electron-ion (+dipol)            ewald-force                    non-local-force                 convergence-correction
 -----------------------------------------------------------------------------------------------
   0.142E-05 0.208E+04 0.174E+03   -.988E-06 -.207E+04 -.172E+03   -.610E-22 -.740E+01 -.196E+01   0.829E-11 0.444E-01 -.328E-01
   -.263E-06 -.434E+03 -.209E+04   0.166E-06 0.434E+03 0.208E+04   0.581E-24 -.252E+00 0.901E+01   0.674E-11 0.908E-02 0.685E-02
   0.183E+04 -.500E+03 0.924E+03   -.183E+04 0.497E+03 -.921E+03   -.713E+01 0.285E+01 -.308E+01   -.279E-02 -.468E-02 0.147E-01
   -.183E+04 -.500E+03 0.924E+03   0.183E+04 0.497E+03 -.921E+03   0.713E+01 0.285E+01 -.308E+01   0.279E-02 -.468E-02 0.147E-01
   0.639E-06 0.115E+04 -.181E+04   -.522E-06 -.114E+04 0.181E+04   -.746E-23 -.464E+01 0.736E+01   0.226E-11 0.501E-02 0.979E-02
   0.121E+04 -.173E+04 -.875E+02   -.121E+04 0.172E+04 0.880E+02   -.475E+01 0.588E+01 -.513E+00   -.249E-02 -.883E-02 0.362E-02
   -.121E+04 -.173E+04 -.875E+02   0.121E+04 0.172E+04 0.880E+02   0.475E+01 0.588E+01 -.513E+00   0.249E-02 -.883E-02 0.362E-02
   0.122E+04 0.154E+04 0.710E+03   -.122E+04 -.154E+04 -.706E+03   -.290E+01 -.531E+01 -.374E+01   -.322E-01 0.214E-01 0.754E-03
   -.122E+04 0.154E+04 0.710E+03   0.122E+04 -.154E+04 -.706E+03   0.290E+01 -.531E+01 -.374E+01   0.322E-01 0.214E-01 0.754E-03
   0.783E-06 0.107E+04 0.182E+04   -.555E-06 -.106E+04 -.182E+04   -.142E-22 -.710E+01 -.620E+01   0.843E-11 -.543E-02 0.374E-01
   -.187E+04 -.504E+03 -.782E+03   0.186E+04 0.503E+03 0.780E+03   0.612E+01 0.144E+01 0.169E+01   0.885E-02 0.338E-02 0.399E-02
   0.187E+04 -.504E+03 -.782E+03   -.186E+04 0.503E+03 0.780E+03   -.612E+01 0.144E+01 0.169E+01   -.885E-02 0.338E-02 0.399E-02
   0.659E+03 -.139E+04 0.143E+04   -.656E+03 0.138E+04 -.142E+04   -.301E+01 0.398E+01 -.431E+01   -.366E-02 -.209E-01 0.232E-02
   -.659E+03 -.139E+04 0.143E+04   0.656E+03 0.138E+04 -.142E+04   0.301E+01 0.398E+01 -.431E+01   0.366E-02 -.209E-01 0.232E-02
   0.134E+04 0.373E+03 -.153E+04   -.134E+04 -.374E+03 0.152E+04   -.145E+01 0.936E+00 0.558E+01   -.114E-01 0.100E-02 -.630E-02
   -.134E+04 0.373E+03 -.153E+04   0.134E+04 -.374E+03 0.152E+04   0.145E+01 0.936E+00 0.558E+01   0.114E-01 0.100E-02 -.630E-02
   0.123E+04 0.375E+03 0.156E+04   -.123E+04 -.376E+03 -.156E+04   -.619E+00 0.193E+00 -.561E+01   -.120E-01 0.619E-02 0.906E-02
   -.123E+04 0.375E+03 0.156E+04   0.123E+04 -.376E+03 -.156E+04   0.619E+00 0.193E+00 -.561E+01   0.120E-01 0.619E-02 0.906E-02
   -.182E+04 0.719E+03 -.860E+02   0.182E+04 -.718E+03 0.848E+02   0.214E+01 -.501E+00 0.111E+01   0.119E-01 0.888E-02 0.722E-04
   0.182E+04 0.719E+03 -.860E+02   -.182E+04 -.718E+03 0.848E+02   -.214E+01 -.501E+00 0.111E+01   -.119E-01 0.888E-02 0.722E-04
   0.895E+03 0.157E+04 -.809E+03   -.894E+03 -.156E+04 0.808E+03   -.138E+01 -.358E+01 0.128E+01   -.410E-02 0.130E-01 -.943E-02
   -.895E+03 0.157E+04 -.809E+03   0.894E+03 -.156E+04 0.808E+03   0.138E+01 -.358E+01 0.128E+01   0.410E-02 0.130E-01 -.943E-02
   -.248E-06 -.308E+03 0.191E+04   0.188E-06 0.309E+03 -.191E+04   0.921E-23 -.495E+00 -.305E+01   0.534E-10 -.270E-01 0.122E-01
   0.687E+03 -.127E+04 -.134E+04   -.685E+03 0.127E+04 0.134E+04   -.168E+01 0.281E+01 0.299E+01   -.646E-02 -.182E-02 -.458E-02
   -.687E+03 -.127E+04 -.134E+04   0.685E+03 0.127E+04 0.134E+04   0.168E+01 0.281E+01 0.299E+01   0.646E-02 -.182E-02 -.458E-02
   -.966E-06 -.197E+04 -.126E+03   0.917E-06 0.197E+04 0.126E+03   0.548E-23 0.196E+01 0.397E+00   -.338E-10 -.190E-02 0.123E-02
   0.101E-06 0.159E+03 -.820E+03   -.158E-06 -.159E+03 0.818E+03   -.850E-23 -.449E-01 0.198E+01   -.349E-11 0.679E-02 0.100E-01
   0.678E+03 -.445E+03 0.242E+03   -.677E+03 0.444E+03 -.243E+03   -.124E+01 0.104E+01 0.675E+00   -.495E-02 -.938E-02 0.113E-01
   -.678E+03 -.445E+03 0.242E+03   0.677E+03 0.444E+03 -.243E+03   0.124E+01 0.104E+01 0.675E+00   0.495E-02 -.938E-02 0.113E-01
   0.540E-06 0.776E+03 0.484E+03   -.430E-06 -.775E+03 -.483E+03   0.466E-22 -.148E+01 -.594E+00   -.306E-10 0.352E-01 0.107E-01
 -----------------------------------------------------------------------------------------------
   -.118E-06 -.160E-01 0.743E+00   -.853E-13 0.114E-12 -.455E-12   -.888E-15 0.338E-01 -.930E+00   0.252E-09 0.827E-01 0.107E+00
 
 
 POSITION                                       TOTAL-FORCE (eV/Angst)
 -----------------------------------------------------------------------------------
     13.44309      9.51835     12.99114        -0.000000      0.012598     -0.026212
     13.44309     13.99197     17.04882        -0.000000      0.004438      0.002721
     10.06486     14.56806     12.08545        -0.002795      0.000530      0.003563
     16.82131     14.56806     12.08545         0.002795      0.000530      0.003563
     13.44309     11.55911     16.59201        -0.000000      0.000641      0.002682
     10.99908     16.44148     13.44888         0.000691     -0.000838     -0.001457
     15.88710     16.44148     13.44888        -0.000691     -0.000838     -0.001457
     11.41495     10.54364     12.21596        -0.006997      0.005621     -0.001514
     15.47122     10.54364     12.21596         0.006997      0.005621     -0.001514
     13.44309     11.32608     10.46675        -0.000000     -0.020629      0.018160
     16.88141     14.52767     14.58554         0.005139      0.002210      0.002152
     10.00477     14.52767     14.58554        -0.005139      0.002210      0.002152
     12.19000     15.98625     11.31574         0.000125     -0.010591     -0.003684
     14.69617     15.98625     11.31574        -0.000125     -0.010591     -0.003684
     11.29477     12.86393     15.88174        -0.003838     -0.002673     -0.001971
     15.59140     12.86393     15.88174         0.003838     -0.002673     -0.001971
     11.40394     12.72486     11.21860        -0.005480      0.003656     -0.000065
     15.48223     12.72486     11.21860         0.005480      0.003656     -0.000065
     16.37396     12.43353     13.50528         0.007802      0.001378      0.001877
     10.51221     12.43353     13.50528        -0.007802      0.001378      0.001877
     12.14977     10.92281     14.57161         0.002756      0.002433     -0.004372
     14.73640     10.92281     14.57161        -0.002756      0.002433     -0.004372
     13.44309     13.92966     10.82361        -0.000000     -0.010241      0.001352
     12.19928     15.31440     15.34157        -0.000578     -0.000450     -0.001198
     14.68689     15.31440     15.34157         0.000578     -0.000450     -0.001198
     13.44309     16.54872     13.41812        -0.000000      0.002307     -0.003652
     13.44309     13.13877     14.82552        -0.000000      0.001329      0.004867
     12.19641     14.29904     13.05921        -0.000768     -0.001892      0.004499
     14.68976     14.29904     13.05921         0.000768     -0.001892      0.004499
     13.44309     12.02863     12.66748        -0.000000      0.010791      0.004421
 -----------------------------------------------------------------------------------
    total drift:                               -0.000000      0.100497     -0.080201


--------------------------------------------------------------------------------------------------------



  FREE ENERGIE OF THE ION-ELECTRON SYSTEM (eV)
  ---------------------------------------------------
  free  energy   TOTEN  =       -85.99511102 eV

  energy  without entropy=      -85.99511102  energy(sigma->0) =      -85.99511102
 
 d Force = 0.1093014E-04[ 0.193E-04, 0.259E-05]  d Energy = 0.6565805E-04-0.547E-04
 d Force =-0.8383782E-01[-0.838E-01,-0.839E-01]  d Ewald  =-0.8383782E-01-0.320E-09


--------------------------------------------------------------------------------------------------------


    POTLOK:  cpu time    1.0361: real time    1.0370


--------------------------------------------------------------------------------------------------------




--------------------------------------------------------------------------------------------------------


  
 reached required accuracy - stopping structural energy minimisation
     LOOP+:  cpu time   55.0234: real time   56.0327
    4ORBIT:  cpu time    0.0000: real time    0.0000
 


 total charge     
 
# of ion     s       p       d       tot
----------------------------------------
  1        0.491   0.189   9.246   9.925
  2        0.468   0.177   9.264   9.909
  3        0.462   0.203   9.249   9.914
  4        0.462   0.203   9.249   9.914
  5        0.468   0.202   9.248   9.918
  6        0.478   0.216   9.237   9.931
  7        0.478   0.216   9.237   9.931
  8        0.481   0.202   9.239   9.923
  9        0.481   0.202   9.239   9.923
 10        0.454   0.153   9.268   9.876
 11        0.491   0.212   9.229   9.932
 12        0.491   0.212   9.229   9.932
 13        0.465   0.210   9.232   9.907
 14        0.465   0.210   9.232   9.907
 15        0.462   0.222   9.221   9.905
 16        0.462   0.222   9.221   9.905
 17        0.440   0.271   9.228   9.939
 18        0.440   0.271   9.228   9.939
 19        0.447   0.270   9.210   9.927
 20        0.447   0.270   9.210   9.927
 21        0.441   0.282   9.216   9.939
 22        0.441   0.282   9.216   9.939
 23        0.449   0.281   9.220   9.950
 24        0.426   0.272   9.227   9.924
 25        0.426   0.272   9.227   9.924
 26        0.460   0.259   9.214   9.932
 27        0.455   0.421   9.207  10.084
 28        0.433   0.388   9.218  10.039
 29        0.433   0.388   9.218  10.039
 30        0.421   0.377   9.212  10.011
------------------------------------------------
tot       13.718   7.558 276.889 298.166
 


 magnetization (x)
 
# of ion     s       p       d       tot
----------------------------------------
  1       -0.000  -0.000  -0.000  -0.000
  2        0.000   0.000  -0.000  -0.000
  3       -0.000  -0.000  -0.000  -0.000
  4       -0.000  -0.000  -0.000  -0.000
  5       -0.000  -0.000  -0.000  -0.000
  6        0.000   0.000  -0.000  -0.000
  7        0.000   0.000  -0.000  -0.000
  8       -0.000   0.000   0.000   0.000
  9       -0.000   0.000   0.000   0.000
 10       -0.000  -0.000  -0.000  -0.000
 11       -0.000   0.000  -0.000  -0.000
 12       -0.000   0.000  -0.000  -0.000
 13       -0.000  -0.000   0.000  -0.000
 14       -0.000  -0.000   0.000  -0.000
 15       -0.000   0.000   0.000  -0.000
 16       -0.000   0.000   0.000  -0.000
 17        0.000   0.000  -0.000  -0.000
 18        0.000   0.000  -0.000  -0.000
 19       -0.000   0.000  -0.000  -0.000
 20       -0.000   0.000  -0.000  -0.000
 21        0.000   0.000  -0.000   0.000
 22        0.000   0.000  -0.000   0.000
 23       -0.000  -0.000   0.000  -0.000
 24        0.000   0.000  -0.000  -0.000
 25        0.000   0.000  -0.000  -0.000
 26       -0.000  -0.000   0.000   0.000
 27       -0.000  -0.000   0.000  -0.000
 28       -0.000  -0.000  -0.000  -0.000
 29       -0.000  -0.000  -0.000  -0.000
 30        0.000  -0.000   0.000   0.000
------------------------------------------------
tot       -0.000  -0.000  -0.000  -0.000
 

 total amount of memory used by VASP on root node   136875. kBytes
========================================================================

   base      :      30000. kBytes
   nonl-proj :       8736. kBytes
   fftplans  :      19949. kBytes
   grid      :      50730. kBytes
   one-center:         62. kBytes
   wavefun   :      27398. kBytes
 
  
  
 General timing and accounting informations for this job:
 ========================================================
  
                  Total CPU time used (sec):      884.407
                            User time (sec):      876.359
                          System time (sec):        8.049
                         Elapsed time (sec):      907.955
  
                   Maximum memory used (kb):      213340.
                   Average memory used (kb):           0.
  
                          Minor page faults:      1705508
                          Major page faults:            0
                 Voluntary context switches:         3190
